 title="result"
 variables="x","y","P","u","v","t","omega","psi","RES1","RES2","RES3","RES4"
zone,j= 49,i= 49,f=point
 -0.4463   0.5484    0.2415999246760981E-01    0.0000000000000000E+00    0.0000000000000000E+00   -0.5000000000000000E+00    0.0000000000000000E+00    0.0000000000000000E+00    0.0000000000000000E+00    0.0000000000000000E+00    0.0000000000000000E+00    0.0000000000000000E+00
 -0.4465   0.5474    0.2468819255282416E-01    0.0000000000000000E+00    0.0000000000000000E+00   -0.4960393394406447E+00   -0.2381855059060107E-03    0.0000000000000000E+00    0.0000000000000000E+00    0.0000000000000000E+00    0.0000000000000000E+00    0.0000000000000000E+00
 -0.4468   0.5442    0.2625832637289761E-01    0.0000000000000000E+00    0.0000000000000000E+00   -0.4841759758529379E+00   -0.4328748553706937E-02    0.0000000000000000E+00    0.0000000000000000E+00    0.0000000000000000E+00    0.0000000000000000E+00    0.0000000000000000E+00
 -0.4473   0.5389    0.2882385626332578E-01    0.0000000000000000E+00    0.0000000000000000E+00   -0.4644754759951282E+00   -0.7368993480213707E-02    0.0000000000000000E+00    0.0000000000000000E+00    0.0000000000000000E+00    0.0000000000000000E+00    0.0000000000000000E+00
 -0.4481   0.5315    0.3225755021231325E-01    0.0000000000000000E+00    0.0000000000000000E+00   -0.4370777331103693E+00    0.6386707724014251E-02    0.0000000000000000E+00    0.0000000000000000E+00    0.0000000000000000E+00    0.0000000000000000E+00    0.0000000000000000E+00
 -0.4491   0.5220    0.3632461467116741E-01    0.0000000000000000E+00    0.0000000000000000E+00   -0.4022354402872597E+00    0.4891625914608934E-01    0.0000000000000000E+00    0.0000000000000000E+00    0.0000000000000000E+00    0.0000000000000000E+00    0.0000000000000000E+00
 -0.4502   0.5106    0.4071428040645700E-01    0.0000000000000000E+00    0.0000000000000000E+00   -0.3603556316697181E+00    0.1208041988833053E+00    0.0000000000000000E+00    0.0000000000000000E+00    0.0000000000000000E+00    0.0000000000000000E+00    0.0000000000000000E+00
 -0.4516   0.4971    0.4507324730894791E-01    0.0000000000000000E+00    0.0000000000000000E+00   -0.3120449608413410E+00    0.2105391109960462E+00    0.0000000000000000E+00    0.0000000000000000E+00    0.0000000000000000E+00    0.0000000000000000E+00    0.0000000000000000E+00
 -0.4532   0.4818    0.4904049611342191E-01    0.0000000000000000E+00    0.0000000000000000E+00   -0.2581718834496434E+00    0.2969230012123174E+00    0.0000000000000000E+00    0.0000000000000000E+00    0.0000000000000000E+00    0.0000000000000000E+00    0.0000000000000000E+00
 -0.4549   0.4646    0.5227806774423981E-01    0.0000000000000000E+00    0.0000000000000000E+00   -0.1999601363564445E+00    0.3534997850361358E+00    0.0000000000000000E+00    0.0000000000000000E+00    0.0000000000000000E+00    0.0000000000000000E+00    0.0000000000000000E+00
 -0.4569   0.4456    0.5449866347051439E-01    0.0000000000000000E+00    0.0000000000000000E+00   -0.1391065320571363E+00    0.3538570218946189E+00    0.0000000000000000E+00    0.0000000000000000E+00    0.0000000000000000E+00    0.0000000000000000E+00    0.0000000000000000E+00
 -0.4590   0.4250    0.5548659010166382E-01    0.0000000000000000E+00    0.0000000000000000E+00   -0.7787174606885942E-01    0.2768878747738742E+00    0.0000000000000000E+00    0.0000000000000000E+00    0.0000000000000000E+00    0.0000000000000000E+00    0.0000000000000000E+00
 -0.4613   0.4027    0.5511229619691106E-01    0.0000000000000000E+00    0.0000000000000000E+00   -0.1904142954568097E-01    0.1101767297880233E+00    0.0000000000000000E+00    0.0000000000000000E+00    0.0000000000000000E+00    0.0000000000000000E+00    0.0000000000000000E+00
 -0.4637   0.3790    0.5334109675559705E-01    0.0000000000000000E+00    0.0000000000000000E+00    0.3436166251524307E-01   -0.1500640769884017E+00    0.0000000000000000E+00    0.0000000000000000E+00    0.0000000000000000E+00    0.0000000000000000E+00    0.0000000000000000E+00
 -0.4663   0.3538    0.5023827089905802E-01    0.0000000000000000E+00    0.0000000000000000E+00    0.7965454665472077E-01   -0.5026327475660964E+00    0.0000000000000000E+00    0.0000000000000000E+00    0.0000000000000000E+00    0.0000000000000000E+00    0.0000000000000000E+00
 -0.4690   0.3274    0.4596751550046749E-01    0.0000000000000000E+00    0.0000000000000000E+00    0.1152059838268361E+00   -0.9461980563198259E+00    0.0000000000000000E+00    0.0000000000000000E+00    0.0000000000000000E+00    0.0000000000000000E+00    0.0000000000000000E+00
 -0.4719   0.2997    0.4077806985403099E-01    0.0000000000000000E+00    0.0000000000000000E+00    0.1409360545195703E+00   -0.1482214259885617E+01    0.0000000000000000E+00    0.0000000000000000E+00    0.0000000000000000E+00    0.0000000000000000E+00    0.0000000000000000E+00
 -0.4748   0.2710    0.3498051826701454E-01    0.0000000000000000E+00    0.0000000000000000E+00    0.1582762448805677E+00   -0.2114145019318679E+01    0.0000000000000000E+00    0.0000000000000000E+00    0.0000000000000000E+00    0.0000000000000000E+00    0.0000000000000000E+00
 -0.4779   0.2414    0.2892125783011803E-01    0.0000000000000000E+00    0.0000000000000000E+00    0.1695717154444300E+00   -0.2843623423113877E+01    0.0000000000000000E+00    0.0000000000000000E+00    0.0000000000000000E+00    0.0000000000000000E+00    0.0000000000000000E+00
 -0.4810   0.2109    0.2296521084068227E-01    0.0000000000000000E+00    0.0000000000000000E+00    0.1772690407814421E+00   -0.3665463915526519E+01    0.0000000000000000E+00    0.0000000000000000E+00    0.0000000000000000E+00    0.0000000000000000E+00    0.0000000000000000E+00
 -0.4842   0.1798    0.1748629882968025E-01    0.0000000000000000E+00    0.0000000000000000E+00    0.1833177284552958E+00   -0.4563736298537287E+01    0.0000000000000000E+00    0.0000000000000000E+00    0.0000000000000000E+00    0.0000000000000000E+00    0.0000000000000000E+00
 -0.4874   0.1481    0.1285580976441608E-01    0.0000000000000000E+00    0.0000000000000000E+00    0.1889785319953306E+00   -0.5510461680728350E+01    0.0000000000000000E+00    0.0000000000000000E+00    0.0000000000000000E+00    0.0000000000000000E+00    0.0000000000000000E+00
 -0.4907   0.1160    0.9420736580290200E-02    0.0000000000000000E+00    0.0000000000000000E+00    0.1949406213479801E+00   -0.6467226379085258E+01    0.0000000000000000E+00    0.0000000000000000E+00    0.0000000000000000E+00    0.0000000000000000E+00    0.0000000000000000E+00
 -0.4940   0.0836    0.7471853051267694E-02    0.0000000000000000E+00    0.0000000000000000E+00    0.2015397307959750E+00   -0.7388683655284041E+01    0.0000000000000000E+00    0.0000000000000000E+00    0.0000000000000000E+00    0.0000000000000000E+00    0.0000000000000000E+00
 -0.4974   0.0510    0.7207910274611601E-02    0.0000000000000000E+00    0.0000000000000000E+00    0.2089356069477857E+00   -0.8226484788842036E+01    0.0000000000000000E+00    0.0000000000000000E+00    0.0000000000000000E+00    0.0000000000000000E+00    0.0000000000000000E+00
 -0.5007   0.0185    0.8702983309417362E-02    0.0000000000000000E+00    0.0000000000000000E+00    0.2172123198759834E+00   -0.8932596254065215E+01    0.0000000000000000E+00    0.0000000000000000E+00    0.0000000000000000E+00    0.0000000000000000E+00    0.0000000000000000E+00
 -0.5041  -0.0139    0.1188189116466630E-01    0.0000000000000000E+00    0.0000000000000000E+00    0.2264214298052802E+00   -0.9461869971078277E+01    0.0000000000000000E+00    0.0000000000000000E+00    0.0000000000000000E+00    0.0000000000000000E+00    0.0000000000000000E+00
 -0.5073  -0.0460    0.1650645359262973E-01    0.0000000000000000E+00    0.0000000000000000E+00    0.2365957562230389E+00   -0.9774449678504860E+01    0.0000000000000000E+00    0.0000000000000000E+00    0.0000000000000000E+00    0.0000000000000000E+00    0.0000000000000000E+00
 -0.5106  -0.0777    0.2217599906720660E-01    0.0000000000000000E+00    0.0000000000000000E+00    0.2477512078713646E+00   -0.9838867280348451E+01    0.0000000000000000E+00    0.0000000000000000E+00    0.0000000000000000E+00    0.0000000000000000E+00    0.0000000000000000E+00
 -0.5138  -0.1088    0.2834717130646335E-01    0.0000000000000000E+00    0.0000000000000000E+00    0.2598846616132855E+00   -0.9636279992404750E+01    0.0000000000000000E+00    0.0000000000000000E+00    0.0000000000000000E+00    0.0000000000000000E+00    0.0000000000000000E+00
 -0.5169  -0.1393    0.3437863627716525E-01    0.0000000000000000E+00    0.0000000000000000E+00    0.2729711050565466E+00   -0.9165456962889795E+01    0.0000000000000000E+00    0.0000000000000000E+00    0.0000000000000000E+00    0.0000000000000000E+00    0.0000000000000000E+00
 -0.5200  -0.1689    0.3960219929781912E-01    0.0000000000000000E+00    0.0000000000000000E+00    0.2869614398070602E+00   -0.8447075885581528E+01    0.0000000000000000E+00    0.0000000000000000E+00    0.0000000000000000E+00    0.0000000000000000E+00    0.0000000000000000E+00
 -0.5229  -0.1977    0.4341305213855164E-01    0.0000000000000000E+00    0.0000000000000000E+00    0.3017815883405709E+00   -0.7525259533521255E+01    0.0000000000000000E+00    0.0000000000000000E+00    0.0000000000000000E+00    0.0000000000000000E+00    0.0000000000000000E+00
 -0.5257  -0.2253    0.4536087652103809E-01    0.0000000000000000E+00    0.0000000000000000E+00    0.3173329187051148E+00   -0.6464518312680236E+01    0.0000000000000000E+00    0.0000000000000000E+00    0.0000000000000000E+00    0.0000000000000000E+00    0.0000000000000000E+00
 -0.5285  -0.2517    0.4521724467811701E-01    0.0000000000000000E+00    0.0000000000000000E+00    0.3334932644423270E+00   -0.5341680033154037E+01    0.0000000000000000E+00    0.0000000000000000E+00    0.0000000000000000E+00    0.0000000000000000E+00    0.0000000000000000E+00
 -0.5310  -0.2769    0.4299863045561733E-01    0.0000000000000000E+00    0.0000000000000000E+00    0.3501171740715338E+00   -0.4234421344805924E+01    0.0000000000000000E+00    0.0000000000000000E+00    0.0000000000000000E+00    0.0000000000000000E+00    0.0000000000000000E+00
 -0.5335  -0.3007    0.3893908101290228E-01    0.0000000000000000E+00    0.0000000000000000E+00    0.3670339456989003E+00   -0.3209660385770986E+01    0.0000000000000000E+00    0.0000000000000000E+00    0.0000000000000000E+00    0.0000000000000000E+00    0.0000000000000000E+00
 -0.5358  -0.3229    0.3342473889386177E-01    0.0000000000000000E+00    0.0000000000000000E+00    0.3840429584543810E+00   -0.2315225115835058E+01    0.0000000000000000E+00    0.0000000000000000E+00    0.0000000000000000E+00    0.0000000000000000E+00    0.0000000000000000E+00
 -0.5379  -0.3436    0.2691418861437707E-01    0.0000000000000000E+00    0.0000000000000000E+00    0.4009078519962725E+00   -0.1576794160024964E+01    0.0000000000000000E+00    0.0000000000000000E+00    0.0000000000000000E+00    0.0000000000000000E+00    0.0000000000000000E+00
 -0.5398  -0.3625    0.1986843371416359E-01    0.0000000000000000E+00    0.0000000000000000E+00    0.4173534382569041E+00   -0.9999338261420274E+00    0.0000000000000000E+00    0.0000000000000000E+00    0.0000000000000000E+00    0.0000000000000000E+00    0.0000000000000000E+00
 -0.5416  -0.3797    0.1270457672584608E-01    0.0000000000000000E+00    0.0000000000000000E+00    0.4330702936159038E+00   -0.5753369304570586E+00    0.0000000000000000E+00    0.0000000000000000E+00    0.0000000000000000E+00    0.0000000000000000E+00    0.0000000000000000E+00
 -0.5432  -0.3950    0.5775204088424067E-02    0.0000000000000000E+00    0.0000000000000000E+00    0.4477303105682877E+00   -0.2847879597986531E+00    0.0000000000000000E+00    0.0000000000000000E+00    0.0000000000000000E+00    0.0000000000000000E+00    0.0000000000000000E+00
 -0.5445  -0.4085   -0.6336181639343578E-03    0.0000000000000000E+00    0.0000000000000000E+00    0.4610120513531086E+00   -0.1057741371144337E+00    0.0000000000000000E+00    0.0000000000000000E+00    0.0000000000000000E+00    0.0000000000000000E+00    0.0000000000000000E+00
 -0.5457  -0.4199   -0.6296072914628748E-02    0.0000000000000000E+00    0.0000000000000000E+00    0.4726295502917068E+00   -0.1382698748021903E-01    0.0000000000000000E+00    0.0000000000000000E+00    0.0000000000000000E+00    0.0000000000000000E+00    0.0000000000000000E+00
 -0.5467  -0.4294   -0.1104229761720739E-01    0.0000000000000000E+00    0.0000000000000000E+00    0.4823553587553009E+00    0.1716692961281541E-01    0.0000000000000000E+00    0.0000000000000000E+00    0.0000000000000000E+00    0.0000000000000000E+00    0.0000000000000000E+00
 -0.5475  -0.4368   -0.1476050429799287E-01    0.0000000000000000E+00    0.0000000000000000E+00    0.4900302598578470E+00    0.1450248959367659E-01    0.0000000000000000E+00    0.0000000000000000E+00    0.0000000000000000E+00    0.0000000000000000E+00    0.0000000000000000E+00
 -0.5480  -0.4421   -0.1740347789318373E-01    0.0000000000000000E+00    0.0000000000000000E+00    0.4955577538306996E+00    0.3821203642126395E-02    0.0000000000000000E+00    0.0000000000000000E+00    0.0000000000000000E+00    0.0000000000000000E+00    0.0000000000000000E+00
 -0.5483  -0.4453   -0.1898429393990688E-01    0.0000000000000000E+00    0.0000000000000000E+00    0.4988880548120830E+00   -0.1328509150104095E-03    0.0000000000000000E+00    0.0000000000000000E+00    0.0000000000000000E+00    0.0000000000000000E+00    0.0000000000000000E+00
 -0.5484  -0.4463   -0.1951407286019230E-01    0.0000000000000000E+00    0.0000000000000000E+00    0.5000000000000000E+00    0.0000000000000000E+00    0.0000000000000000E+00    0.0000000000000000E+00    0.0000000000000000E+00    0.0000000000000000E+00    0.0000000000000000E+00
 -0.4453   0.5483    0.2421679729009144E-01    0.0000000000000000E+00    0.0000000000000000E+00   -0.5000000000000000E+00   -0.2383140066813473E-03    0.0000000000000000E+00    0.0000000000000000E+00    0.0000000000000000E+00    0.0000000000000000E+00    0.0000000000000000E+00
 -0.4454   0.5473    0.2474478198087279E-01    0.2855189098256324E-06   -0.2856049348024673E-06   -0.4960392562385897E+00   -0.5354620337732313E-03   -0.1994767518568699E-09    0.5321955902229739E-09    0.4321022977361172E-12    0.4348685040539424E-12   -0.6783299074351878E-11
 -0.4457   0.5441    0.2631360522617513E-01    0.3582002627645096E-05   -0.6871343731851630E-06   -0.4841756443293444E+00   -0.2393161365372271E-02   -0.2060544726693666E-08    0.5351935138554059E-09    0.8283911751005846E-12    0.6345570770227571E-12   -0.2613497265824272E-10
 -0.4463   0.5388    0.2887305480355891E-01    0.5355146807843269E-05    0.2964796699315867E-06   -0.4644747425271930E+00   -0.2559085113692886E-02   -0.3335932055623174E-08    0.5381349970669247E-09    0.8613960239545193E-12    0.6065618927270089E-12   -0.5882147026403661E-10
 -0.4470   0.5314    0.3229640839976319E-01   -0.9589768122520521E-05    0.1795967907922126E-05   -0.4370764763378032E+00    0.1155136402874065E-01    0.4676741868790495E-08    0.5406935879928576E-09    0.7222260983708040E-12    0.6261068052904051E-12   -0.1051988947342597E-09
 -0.4480   0.5219    0.3635334404525113E-01   -0.5382059861068588E-04    0.3105735514194041E-05   -0.4022335745811758E+00    0.5164679196495771E-01    0.2854172913202859E-07    0.5432548993988817E-09    0.3844806417685476E-12    0.6191384210874062E-12   -0.1659292078737273E-09
 -0.4492   0.5105    0.4073523690756858E-01   -0.1283493925142260E-03    0.3744222043439422E-05   -0.3603530788173271E+00    0.1189554982039150E+00    0.6889198357614651E-07    0.5458698146276753E-09   -0.1003051808279309E-12    0.6206667124697418E-12   -0.2428363898854258E-09
 -0.4505   0.4970    0.4508980470711425E-01   -0.2213646514731014E-03    0.3573688398473533E-05   -0.3120416058712587E+00    0.2029829226407562E+00    0.1191981878673390E-06    0.5487955966401725E-09   -0.7233207088841453E-12    0.6282752096353761E-12   -0.3391243848238634E-09
 -0.4521   0.4817    0.4905596174512042E-01   -0.3106985471262414E-03    0.2596137953437934E-05   -0.2581675437697020E+00    0.2834746535653619E+00    0.1675920275227329E-06    0.5523690949083004E-09   -0.1462503729232623E-11    0.6148120207383201E-12   -0.4578124823684249E-09
 -0.4539   0.4645    0.5229518760135583E-01   -0.3684719568016892E-03    0.9792396593611067E-06   -0.1999545728397643E+00    0.3348304027655941E+00    0.1989989603115283E-06    0.5571518866924474E-09   -0.2355955708299717E-11    0.6335470342788696E-12   -0.6005458838553857E-09
 -0.4558   0.4455    0.5451916204856379E-01   -0.3667232422185482E-03   -0.1051923554695267E-05   -0.1390995210755950E+00    0.3312021607115407E+00    0.1984548811930903E-06    0.5637585667392364E-09   -0.3450073560173905E-11    0.6681365530281091E-12   -0.7640165514133379E-09
 -0.4579   0.4249    0.5551113103911578E-01   -0.2829830409805592E-03   -0.3216561031763989E-05   -0.7786321379863315E-01    0.2517343174591484E+00    0.1538610677999807E-06    0.5728676743047001E-09   -0.4807473863444045E-11    0.6600449353744153E-12   -0.9349520532775379E-09
 -0.4602   0.4026    0.5514067323295011E-01   -0.1039004502794417E-03   -0.5290566145576346E-05   -0.1903161396953495E-01    0.8388503764944823E-01    0.5812211942177567E-07    0.5846683207022529E-09   -0.6427039456191608E-11    0.5912249856354634E-12   -0.1084045048171944E-08
 -0.4627   0.3789    0.5337283112875280E-01    0.1747573076644827E-03   -0.7141703575450148E-05    0.3437210978638130E-01   -0.1764575000141098E+00   -0.9103053366931767E-07    0.5988085860497705E-09   -0.8261252792962637E-11    0.5979314265935898E-12   -0.1165751606357901E-08
 -0.4652   0.3537    0.5027317718009596E-01    0.5518687541577925E-03   -0.8780293999950089E-05    0.7966463283536691E-01   -0.5284101686685012E+00   -0.2929384196718563E-06    0.6136315865157282E-09   -0.1025106388663488E-10    0.5213121601066462E-12   -0.1127609880469116E-08
 -0.4680   0.3273    0.4600604714000978E-01    0.1026047460163874E-02   -0.1029226511999441E-04    0.1152146630466051E+00   -0.9707078101617300E+00   -0.5468771722457759E-06    0.6260636939425801E-09   -0.1235190422166355E-10    0.4782493845389979E-12   -0.9297303552036063E-09
 -0.4708   0.2996    0.4082114356831611E-01    0.1598711527860479E-02   -0.1177724761339817E-04    0.1409426071657293E+00   -0.1504550757087946E+01   -0.8536095210325381E-06    0.6318770992552736E-09   -0.1453725334554790E-10    0.4004296894066783E-12   -0.5664825830642428E-09
 -0.4737   0.2709    0.3502905565279743E-01    0.2273272925866912E-02   -0.1326223090940917E-04    0.1582805132236027E+00   -0.2132844143498192E+01   -0.1215032149681030E-05    0.6268135246956241E-09   -0.1679375388752291E-10    0.2840505608503463E-12   -0.7416949693306307E-10
 -0.4768   0.2413    0.2897559928457950E-01    0.3051084400086117E-02   -0.1468756709543748E-04    0.1695740500564711E+00   -0.2856484674290441E+01   -0.1631924501892075E-05    0.6075926220483474E-09   -0.1910301777874324E-10    0.1782046732401454E-12    0.4805864456391973E-09
 -0.4799   0.2108    0.2302472762436849E-01    0.3926188541257226E-02   -0.1590678296561290E-04    0.1772700331807417E+00   -0.3669524554810515E+01   -0.2101182695787414E-05    0.5725205622086893E-09   -0.2135915923295872E-10    0.7267797474952431E-13    0.1027027481288745E-08
 -0.4831   0.1797    0.1754923440606500E-01    0.4881218136537326E-02   -0.1673942227847770E-04    0.1833179355922342E+00   -0.4555450193102612E+01   -0.2613556113518428E-05    0.5214350722038130E-09   -0.2334757040478586E-10   -0.7617517727709355E-13    0.1511726340462649E-08
 -0.4864   0.1480    0.1291943183213325E-01    0.5886094244285785E-02   -0.1701166393775751E-04    0.1889783364123058E+00   -0.5486045273616728E+01   -0.3152975456734598E-05    0.4555719829157923E-09   -0.2472598514824398E-10   -0.1645072966738326E-12    0.1907215158372666E-08
 -0.4897   0.1159    0.9481616463228273E-02    0.6899806138105112E-02   -0.1660099925778778E-04    0.1949402288168960E+00   -0.6423108074322020E+01   -0.3697462436759630E-05    0.3772917776811990E-09   -0.2512449970293318E-10   -0.2624150896579636E-12    0.2208868477016068E-08
 -0.4930   0.0835    0.7526209695748192E-02    0.7874166966499046E-02   -0.1543938795890859E-04    0.2015392299694173E+00   -0.7321962004787536E+01   -0.4221164987320195E-05    0.2899333308159502E-09   -0.2428482415162136E-10   -0.3674699433631190E-12    0.2423652274534394E-08
 -0.4963   0.0509    0.7251847685918677E-02    0.8757993505154944E-02   -0.1350939425586077E-04    0.2089350276359648E+00   -0.8135334666806251E+01   -0.4696580526402968E-05    0.1976111774215639E-09   -0.2209885052728566E-10   -0.3893552147360424E-12    0.2563766848991123E-08
 -0.4997   0.0184    0.8732666799331198E-02    0.9500617337247663E-02   -0.1082151881360299E-04    0.2172116683522980E+00   -0.8816600787976697E+01   -0.5096454816865792E-05    0.1048235283296339E-09   -0.1866584664611537E-10   -0.3972447371047849E-12    0.2641626623174631E-08
 -0.5030  -0.0140    0.1189363873116987E-01    0.1005459489310693E-01   -0.7409640904429284E-05    0.2264207050987467E+00   -0.9322272483403429E+01   -0.5395234419408215E-05    0.1596415014071262E-10   -0.1431099683202319E-10   -0.3259129077726186E-12    0.2666971917614225E-08
 -0.5063  -0.0461    0.1649689291615525E-01    0.1037824012067859E-01   -0.3333749747033202E-05    0.2365949564532339E+00   -0.9614329247840249E+01   -0.5570429022619031E-05   -0.6512153576804236E-10   -0.9392653321782518E-11   -0.2433799689560701E-12    0.2648958884708674E-08
 -0.5095  -0.0778    0.2214230092788829E-01    0.1043887259386592E-01    0.1294396372013108E-05    0.2477503325012347E+00   -0.9663183157051302E+01   -0.5604369931932735E-05   -0.1357401083895704E-09   -0.4431621736245006E-11   -0.1005445726676157E-12    0.2593929104496850E-08
 -0.5127  -0.1089    0.2828745747245245E-01    0.1021724543770546E-01    0.6285313505851046E-05    0.2598837120913815E+00   -0.9451723080414192E+01   -0.5486584438143989E-05   -0.1945750401077806E-09    0.1272315586220429E-12    0.7642150801068226E-13    0.2507505307558500E-08
 -0.5159  -0.1394    0.3429244473967910E-01    0.9712726452339676E-02    0.1135119064077697E-04    0.2729700845716549E+00   -0.8979996043492482E+01   -0.5216619719937541E-05   -0.2418500955059244E-09    0.3823386052204114E-11    0.2382954944479820E-12    0.2394610672945552E-08
 -0.5189  -0.1691    0.3949094178624488E-01    0.8947720974519348E-02    0.1611560892984789E-04    0.2869603523063833E+00   -0.8269187265812567E+01   -0.4806411064851126E-05   -0.2792527285799817E-09    0.6341871472415050E-11    0.4175687573493292E-12    0.2259318929859200E-08
 -0.5218  -0.1978    0.4328020441788929E-01    0.7969179343092292E-02    0.2015985484034548E-04    0.3017804370006380E+00   -0.7362882687512785E+01   -0.4281152770832867E-05   -0.3094733150299511E-09    0.7508049737481315E-11    0.6318695566776000E-12    0.2105553280340455E-08
 -0.5247  -0.2254    0.4521181392977206E-01    0.6845301047438466E-02    0.2310213780161942E-04    0.3173317043612245E+00   -0.6323989012000042E+01   -0.3677488477517236E-05   -0.3355842895236272E-09    0.7369937993217945E-11    0.7744638264028936E-12    0.1937149588307485E-08
 -0.5274  -0.2519    0.4505860157708588E-01    0.5657028441687371E-02    0.2468764520351290E-04    0.3334919848698349E+00   -0.5226888245214107E+01   -0.3038994947696076E-05   -0.3602922821199783E-09    0.6157407916873581E-11    0.8752026880998187E-12    0.1757794885343111E-08
 -0.5300  -0.2770    0.4283739548066792E-01    0.4486035695232948E-02    0.2484848126095925E-04    0.3501158251937018E+00   -0.4146495698817337E+01   -0.2409631764649059E-05   -0.3852617599942043E-09    0.4240885420614404E-11    0.9512945986500654E-12    0.1571502976360772E-08
 -0.5324  -0.3008    0.3878160446880148E-01    0.3402610767167265E-02    0.2371630049787231E-04    0.3670325254974969E+00   -0.3147194798038078E+01   -0.1827288906177907E-05   -0.4109689810682937E-09    0.2073313742911864E-11    0.1018768402971659E-11    0.1381947830475516E-08
 -0.5347  -0.3230    0.3327602938164630E-01    0.2456974405965871E-02    0.2156831066692386E-04    0.3840414733855775E+00   -0.2274991618656692E+01   -0.1318990808290146E-05   -0.4367724446008303E-09    0.5584421813864537E-13    0.1050104447841704E-11    0.1193346095551551E-08
 -0.5368  -0.3437    0.2677757158256697E-01    0.1676102366057635E-02    0.1875039739748664E-04    0.4009063242240065E+00   -0.1554589079399137E+01   -0.8993068215742373E-06   -0.4614264387248213E-09   -0.1534924964907702E-11    0.1027955498500432E-11    0.1009619351663438E-08
 -0.5388  -0.3626    0.1974569001088583E-01    0.1065856245616486E-02    0.1558172062897096E-04    0.4173519106218560E+00   -0.9913898165148772E+00   -0.5713451864874769E-06   -0.4835441803907603E-09   -0.2549960242959060E-11    0.1031022489605959E-11    0.8341197003935985E-09
 -0.5405  -0.3798    0.1259630182595918E-01    0.6164515578713312E-03    0.1230962714362842E-04    0.4330688289220138E+00   -0.5764002129837891E+00   -0.3298940524832337E-06   -0.5020984045200905E-09   -0.2992333377610512E-11    0.1006972283335017E-11    0.6697721006282409E-09
 -0.5421  -0.3952    0.5681306489694686E-02    0.3086705437123399E-03    0.9077849623009394E-05    0.4477289831725670E+00   -0.2919626274013743E+00   -0.1645456241844873E-06   -0.5165881715452070E-09   -0.2969714751888120E-11    0.9818951207662963E-12    0.5193808907261177E-09
 -0.5435  -0.4086   -0.7136647593360381E-03    0.1186690290975997E-03    0.5983063489554950E-05    0.4610109319847146E+00   -0.1160067403875651E+00   -0.6258044237113696E-07   -0.5271453447364127E-09   -0.2647385782816869E-11    0.9824675795133686E-12    0.3853746375834244E-09
 -0.5447  -0.4201   -0.6363280503970982E-02    0.2040762986208469E-04    0.3118286866068685E-05    0.4726286883337555E+00   -0.2440365829551226E-01   -0.9918040039368483E-08   -0.5343160193807539E-09   -0.2205978455460667E-11    0.9587400318089578E-12    0.2694959498616978E-09
 -0.5456  -0.4295   -0.1109876572594335E-01   -0.1392064850616212E-04    0.7320497712420308E-06    0.4823547683460226E+00    0.8769106663616162E-02    0.8202796052537469E-08   -0.5391809412141901E-09   -0.1801059301698160E-11    0.9798117178716481E-12    0.1736697114243513E-09
 -0.5464  -0.4369   -0.1481042206800335E-01   -0.1325155696494771E-04   -0.8120885241075368E-06    0.4900299157054854E+00    0.1014908794492971E-01    0.7542312814081194E-08   -0.5428215212391341E-09   -0.1516479650187641E-11    0.9526021464700829E-12    0.9760124479452070E-10
 -0.5469  -0.4422   -0.1745367325131336E-01   -0.3917225950830144E-05   -0.1051540018929230E-05    0.4955575989500168E+00    0.3601297996189096E-02    0.2076908065102725E-08   -0.5469745663344572E-09   -0.1308687099660366E-11    0.9940078274373043E-12    0.4381513099387113E-10
 -0.5473  -0.4454   -0.1903677966226134E-01   -0.1044153590276725E-06   -0.1046969054258629E-06    0.4988880160017988E+00    0.5187235582467221E-03    0.9098827031097145E-10   -0.5515456340883691E-09   -0.6939926064375435E-12    0.7042795166500859E-12    0.1081034881837001E-10
 -0.5474  -0.4465   -0.1956662008828871E-01    0.0000000000000000E+00    0.0000000000000000E+00    0.5000000000000000E+00   -0.1322719325798591E-03    0.0000000000000000E+00    0.0000000000000000E+00    0.0000000000000000E+00    0.0000000000000000E+00    0.0000000000000000E+00
 -0.4421   0.5480    0.2437393848581046E-01    0.0000000000000000E+00    0.0000000000000000E+00   -0.5000000000000000E+00   -0.4328952356758416E-02    0.0000000000000000E+00    0.0000000000000000E+00    0.0000000000000000E+00    0.0000000000000000E+00    0.0000000000000000E+00
 -0.4422   0.5469    0.2490193650698317E-01    0.6869630218719731E-06   -0.3582013526664461E-05   -0.4960380135834889E+00   -0.2392984020586783E-02   -0.2060582483615435E-08    0.5350317008011307E-09    0.6416247741447556E-12    0.8175369018911804E-12   -0.6638698922187269E-11
 -0.4425   0.5437    0.2646881387412129E-01    0.4951790076679124E-05   -0.4952235078390444E-05   -0.4841706950607828E+00    0.2227082287894293E-02   -0.1873699656180076E-07    0.5361828312074046E-09    0.1907565468431405E-11    0.1967780105527339E-11   -0.2592595322453706E-10
 -0.4431   0.5384    0.2901581287601759E-01   -0.1575664738436894E-05    0.7101286546403017E-05   -0.4644637689118508E+00    0.8944752981907292E-02   -0.1698079963887818E-07    0.5382571879528064E-09    0.2612076353825099E-11    0.2439523843350555E-11   -0.5873290048752366E-10
 -0.4438   0.5310    0.3241483111437311E-01   -0.6444312232091885E-04    0.2782926310257740E-04   -0.4370575343312134E+00    0.2429475506077384E-01    0.1145236276244862E-06    0.5406064606389149E-09    0.2387072310650051E-11    0.2649333877280391E-11   -0.1050466484631141E-09
 -0.4448   0.5216    0.3644502335498434E-01   -0.2280350868640646E-03    0.4661312397941850E-04   -0.4022051493957046E+00    0.5781737518428164E-01    0.4763471166645402E-06    0.5430421737284696E-09    0.1354315531248984E-11    0.2759353509573792E-11   -0.1656373111585951E-09
 -0.4460   0.5101    0.4080504104872910E-01   -0.4992047752333205E-03    0.5614644040949874E-04   -0.3603137611630456E+00    0.1122930578375142E+00    0.1081142496793987E-05    0.5456729755548562E-09   -0.3467339262930302E-12    0.2859998696203014E-11   -0.2429204129517082E-09
 -0.4474   0.4967    0.4514625513464389E-01   -0.8363762028978544E-03    0.5339173377963456E-04   -0.3119895495183997E+00    0.1798976006997257E+00    0.1834572974976293E-05    0.5485781447156501E-09   -0.2600759885229564E-11    0.2863211404080523E-11   -0.3392790527689815E-09
 -0.4489   0.4814    0.4910812396868335E-01   -0.1157093124639304E-02    0.3837539467466977E-04   -0.2581000980456828E+00    0.2432610528658856E+00    0.2554686887653017E-05    0.5521528546881260E-09   -0.5338528230591777E-11    0.2889770020497728E-11   -0.4577582202180963E-09