 title="result"
 variables="x","y","P","u","v","t","omega","psi","RES1","RES2","RES3","RES4"
zone,j= 49,i= 49,f=point
 -0.4530   0.5429    0.2420247447613268E-01    0.0000000000000000E+00    0.0000000000000000E+00   -0.5000000000000000E+00    0.0000000000000000E+00    0.0000000000000000E+00    0.0000000000000000E+00    0.0000000000000000E+00    0.0000000000000000E+00    0.0000000000000000E+00
 -0.4531   0.5418    0.2473124079093744E-01    0.0000000000000000E+00    0.0000000000000000E+00   -0.4960843259031605E+00   -0.2573702810340970E-03    0.0000000000000000E+00    0.0000000000000000E+00    0.0000000000000000E+00    0.0000000000000000E+00    0.0000000000000000E+00
 -0.4534   0.5387    0.2630442400205753E-01    0.0000000000000000E+00    0.0000000000000000E+00   -0.4843556840750435E+00   -0.4389846080372939E-02    0.0000000000000000E+00    0.0000000000000000E+00    0.0000000000000000E+00    0.0000000000000000E+00    0.0000000000000000E+00
 -0.4539   0.5333    0.2887744292021730E-01    0.0000000000000000E+00    0.0000000000000000E+00   -0.4648786436358037E+00   -0.6579593621176779E-02    0.0000000000000000E+00    0.0000000000000000E+00    0.0000000000000000E+00    0.0000000000000000E+00    0.0000000000000000E+00
 -0.4546   0.5259    0.3232206462733758E-01    0.0000000000000000E+00    0.0000000000000000E+00   -0.4377903355629353E+00    0.1019594332673755E-01    0.0000000000000000E+00    0.0000000000000000E+00    0.0000000000000000E+00    0.0000000000000000E+00    0.0000000000000000E+00
 -0.4554   0.5165    0.3639989538198803E-01    0.0000000000000000E+00    0.0000000000000000E+00   -0.4033367142607828E+00    0.5851234759502336E-01    0.0000000000000000E+00    0.0000000000000000E+00    0.0000000000000000E+00    0.0000000000000000E+00    0.0000000000000000E+00
 -0.4565   0.5050    0.4079635866999792E-01    0.0000000000000000E+00    0.0000000000000000E+00   -0.3619102383382274E+00    0.1386195945939178E+00    0.0000000000000000E+00    0.0000000000000000E+00    0.0000000000000000E+00    0.0000000000000000E+00    0.0000000000000000E+00
 -0.4577   0.4916    0.4515574067332408E-01    0.0000000000000000E+00    0.0000000000000000E+00   -0.3140901045739062E+00    0.2378249799970934E+00    0.0000000000000000E+00    0.0000000000000000E+00    0.0000000000000000E+00    0.0000000000000000E+00    0.0000000000000000E+00
 -0.4591   0.4762    0.4911730395038563E-01    0.0000000000000000E+00    0.0000000000000000E+00   -0.2607001730127680E+00    0.3331961696166129E+00    0.0000000000000000E+00    0.0000000000000000E+00    0.0000000000000000E+00    0.0000000000000000E+00    0.0000000000000000E+00
 -0.4606   0.4590    0.5234637005877230E-01    0.0000000000000000E+00    0.0000000000000000E+00   -0.2029023251213708E+00    0.3964861709476458E+00    0.0000000000000000E+00    0.0000000000000000E+00    0.0000000000000000E+00    0.0000000000000000E+00    0.0000000000000000E+00
 -0.4623   0.4400    0.5456093948964849E-01    0.0000000000000000E+00    0.0000000000000000E+00   -0.1423219604440798E+00    0.4000380981692748E+00    0.0000000000000000E+00    0.0000000000000000E+00    0.0000000000000000E+00    0.0000000000000000E+00    0.0000000000000000E+00
 -0.4642   0.4193    0.5555016586997769E-01    0.0000000000000000E+00    0.0000000000000000E+00   -0.8115616682527722E-01    0.3225053869133981E+00    0.0000000000000000E+00    0.0000000000000000E+00    0.0000000000000000E+00    0.0000000000000000E+00    0.0000000000000000E+00
 -0.4662   0.3971    0.5518613423234959E-01    0.0000000000000000E+00    0.0000000000000000E+00   -0.2215881234413959E-01    0.1522519158556973E+00    0.0000000000000000E+00    0.0000000000000000E+00    0.0000000000000000E+00    0.0000000000000000E+00    0.0000000000000000E+00
 -0.4683   0.3733    0.5343131447911686E-01    0.0000000000000000E+00    0.0000000000000000E+00    0.3162685363808102E-01   -0.1131920061173269E+00    0.0000000000000000E+00    0.0000000000000000E+00    0.0000000000000000E+00    0.0000000000000000E+00    0.0000000000000000E+00
 -0.4706   0.3481    0.5034505515555953E-01    0.0000000000000000E+00    0.0000000000000000E+00    0.7744220224039174E-01   -0.4714374473741004E+00    0.0000000000000000E+00    0.0000000000000000E+00    0.0000000000000000E+00    0.0000000000000000E+00    0.0000000000000000E+00
 -0.4730   0.3216    0.4608514126656013E-01    0.0000000000000000E+00    0.0000000000000000E+00    0.1135479556836602E+00   -0.9205087019658909E+00    0.0000000000000000E+00    0.0000000000000000E+00    0.0000000000000000E+00    0.0000000000000000E+00    0.0000000000000000E+00
 -0.4755   0.2939    0.4089751509035341E-01    0.0000000000000000E+00    0.0000000000000000E+00    0.1397637812265468E+00   -0.1461745842193886E+01    0.0000000000000000E+00    0.0000000000000000E+00    0.0000000000000000E+00    0.0000000000000000E+00    0.0000000000000000E+00
 -0.4781   0.2652    0.3509266150437589E-01    0.0000000000000000E+00    0.0000000000000000E+00    0.1574629627007257E+00   -0.2098786904993425E+01    0.0000000000000000E+00    0.0000000000000000E+00    0.0000000000000000E+00    0.0000000000000000E+00    0.0000000000000000E+00
 -0.4808   0.2355    0.2901913457678375E-01    0.0000000000000000E+00    0.0000000000000000E+00    0.1689841074788763E+00   -0.2833507763995794E+01    0.0000000000000000E+00    0.0000000000000000E+00    0.0000000000000000E+00    0.0000000000000000E+00    0.0000000000000000E+00
 -0.4835   0.2050    0.2304508929227043E-01    0.0000000000000000E+00    0.0000000000000000E+00    0.1768027698589456E+00   -0.3660887009460935E+01    0.0000000000000000E+00    0.0000000000000000E+00    0.0000000000000000E+00    0.0000000000000000E+00    0.0000000000000000E+00
 -0.4863   0.1738    0.1754803324772246E-01    0.0000000000000000E+00    0.0000000000000000E+00    0.1829078080061322E+00   -0.4564966734784771E+01    0.0000000000000000E+00    0.0000000000000000E+00    0.0000000000000000E+00    0.0000000000000000E+00    0.0000000000000000E+00
 -0.4892   0.1421    0.1290276325099144E-01    0.0000000000000000E+00    0.0000000000000000E+00    0.1885920565392200E+00   -0.5517478365563557E+01    0.0000000000000000E+00    0.0000000000000000E+00    0.0000000000000000E+00    0.0000000000000000E+00    0.0000000000000000E+00
 -0.4921   0.1099    0.9459241418882157E-02    0.0000000000000000E+00    0.0000000000000000E+00    0.1945642597523727E+00   -0.6479465295545009E+01    0.0000000000000000E+00    0.0000000000000000E+00    0.0000000000000000E+00    0.0000000000000000E+00    0.0000000000000000E+00
 -0.4950   0.0775    0.7510029462561216E-02    0.0000000000000000E+00    0.0000000000000000E+00    0.2011697763136795E+00   -0.7404865089041349E+01    0.0000000000000000E+00    0.0000000000000000E+00    0.0000000000000000E+00    0.0000000000000000E+00    0.0000000000000000E+00
 -0.4980   0.0449    0.7253778372170985E-02    0.0000000000000000E+00    0.0000000000000000E+00    0.2085723533613330E+00   -0.8244559377662929E+01    0.0000000000000000E+00    0.0000000000000000E+00    0.0000000000000000E+00    0.0000000000000000E+00    0.0000000000000000E+00
 -0.5009   0.0124    0.8762001666296992E-02    0.0000000000000000E+00    0.0000000000000000E+00    0.2168575330995279E+00   -0.8949818270302146E+01    0.0000000000000000E+00    0.0000000000000000E+00    0.0000000000000000E+00    0.0000000000000000E+00    0.0000000000000000E+00
 -0.5038  -0.0201    0.1195428329222031E-01    0.0000000000000000E+00    0.0000000000000000E+00    0.2260773633430495E+00   -0.9474997671634297E+01    0.0000000000000000E+00    0.0000000000000000E+00    0.0000000000000000E+00    0.0000000000000000E+00    0.0000000000000000E+00
 -0.5067  -0.0522    0.1658485848236348E-01    0.0000000000000000E+00    0.0000000000000000E+00    0.2362647683771623E+00   -0.9780070766203973E+01    0.0000000000000000E+00    0.0000000000000000E+00    0.0000000000000000E+00    0.0000000000000000E+00    0.0000000000000000E+00
 -0.5096  -0.0839    0.2224411770247660E-01    0.0000000000000000E+00    0.0000000000000000E+00    0.2474355773000610E+00   -0.9833840497865456E+01    0.0000000000000000E+00    0.0000000000000000E+00    0.0000000000000000E+00    0.0000000000000000E+00    0.0000000000000000E+00
 -0.5124  -0.1151    0.2838008333929755E-01    0.0000000000000000E+00    0.0000000000000000E+00    0.2595864744130710E+00   -0.9618254186043499E+01    0.0000000000000000E+00    0.0000000000000000E+00    0.0000000000000000E+00    0.0000000000000000E+00    0.0000000000000000E+00
 -0.5152  -0.1456    0.3434524485146642E-01    0.0000000000000000E+00    0.0000000000000000E+00    0.2726921935982206E+00   -0.9133382430157427E+01    0.0000000000000000E+00    0.0000000000000000E+00    0.0000000000000000E+00    0.0000000000000000E+00    0.0000000000000000E+00
 -0.5179  -0.1753    0.3946972660495354E-01    0.0000000000000000E+00    0.0000000000000000E+00    0.2867033823550535E+00   -0.8401574633460116E+01    0.0000000000000000E+00    0.0000000000000000E+00    0.0000000000000000E+00    0.0000000000000000E+00    0.0000000000000000E+00
 -0.5204  -0.2041    0.4315275274199338E-01    0.0000000000000000E+00    0.0000000000000000E+00    0.3015457705750029E+00   -0.7468710807078332E+01    0.0000000000000000E+00    0.0000000000000000E+00    0.0000000000000000E+00    0.0000000000000000E+00    0.0000000000000000E+00
 -0.5229  -0.2317    0.4495345966615279E-01    0.0000000000000000E+00    0.0000000000000000E+00    0.3171206291344933E+00   -0.6400769047718136E+01    0.0000000000000000E+00    0.0000000000000000E+00    0.0000000000000000E+00    0.0000000000000000E+00    0.0000000000000000E+00
 -0.5253  -0.2582    0.4465633796753883E-01    0.0000000000000000E+00    0.0000000000000000E+00    0.3333057587407361E+00   -0.5275409800637740E+01    0.0000000000000000E+00    0.0000000000000000E+00    0.0000000000000000E+00    0.0000000000000000E+00    0.0000000000000000E+00
 -0.5276  -0.2834    0.4229120906322095E-01    0.0000000000000000E+00    0.0000000000000000E+00    0.3499556206791848E+00   -0.4170323303612198E+01    0.0000000000000000E+00    0.0000000000000000E+00    0.0000000000000000E+00    0.0000000000000000E+00    0.0000000000000000E+00
 -0.5298  -0.3072    0.3810291435133040E-01    0.0000000000000000E+00    0.0000000000000000E+00    0.3668991850994336E+00   -0.3151675714397866E+01    0.0000000000000000E+00    0.0000000000000000E+00    0.0000000000000000E+00    0.0000000000000000E+00    0.0000000000000000E+00
 -0.5318  -0.3295    0.3248397977904826E-01    0.0000000000000000E+00    0.0000000000000000E+00    0.3839350889708591E+00   -0.2266036048051351E+01    0.0000000000000000E+00    0.0000000000000000E+00    0.0000000000000000E+00    0.0000000000000000E+00    0.0000000000000000E+00
 -0.5336  -0.3501    0.2589467882035033E-01    0.0000000000000000E+00    0.0000000000000000E+00    0.4008257766119794E+00   -0.1537665922738613E+01    0.0000000000000000E+00    0.0000000000000000E+00    0.0000000000000000E+00    0.0000000000000000E+00    0.0000000000000000E+00
 -0.5353  -0.3691    0.1879401257556635E-01    0.0000000000000000E+00    0.0000000000000000E+00    0.4172946011714754E+00   -0.9708595626203796E+00    0.0000000000000000E+00    0.0000000000000000E+00    0.0000000000000000E+00    0.0000000000000000E+00    0.0000000000000000E+00
 -0.5369  -0.3863    0.1159494735071200E-01    0.0000000000000000E+00    0.0000000000000000E+00    0.4330308147192791E+00   -0.5553585559319565E+00    0.0000000000000000E+00    0.0000000000000000E+00    0.0000000000000000E+00    0.0000000000000000E+00    0.0000000000000000E+00
 -0.5383  -0.4017    0.4645228885846883E-02    0.0000000000000000E+00    0.0000000000000000E+00    0.4477055586302662E+00   -0.2723541173318049E+00    0.0000000000000000E+00    0.0000000000000000E+00    0.0000000000000000E+00    0.0000000000000000E+00    0.0000000000000000E+00
 -0.5395  -0.4151   -0.1773715719840742E-02    0.0000000000000000E+00    0.0000000000000000E+00    0.4609974624456190E+00   -0.9904995888784068E-01    0.0000000000000000E+00    0.0000000000000000E+00    0.0000000000000000E+00    0.0000000000000000E+00    0.0000000000000000E+00
 -0.5405  -0.4266   -0.7440108710173129E-02    0.0000000000000000E+00    0.0000000000000000E+00    0.4726213528971359E+00   -0.1093479849950996E-01    0.0000000000000000E+00    0.0000000000000000E+00    0.0000000000000000E+00    0.0000000000000000E+00    0.0000000000000000E+00
 -0.5414  -0.4361   -0.1218742818531689E-01    0.0000000000000000E+00    0.0000000000000000E+00    0.4823509222940496E+00    0.1793617908093458E-01    0.0000000000000000E+00    0.0000000000000000E+00    0.0000000000000000E+00    0.0000000000000000E+00    0.0000000000000000E+00
 -0.5420  -0.4435   -0.1590634264218557E-01    0.0000000000000000E+00    0.0000000000000000E+00    0.4900280049903912E+00    0.1447444556561549E-01    0.0000000000000000E+00    0.0000000000000000E+00    0.0000000000000000E+00    0.0000000000000000E+00    0.0000000000000000E+00
 -0.5425  -0.4488   -0.1855083683338709E-01    0.0000000000000000E+00    0.0000000000000000E+00    0.4955567931441297E+00    0.3734995404528073E-02    0.0000000000000000E+00    0.0000000000000000E+00    0.0000000000000000E+00    0.0000000000000000E+00    0.0000000000000000E+00
 -0.5428  -0.4520   -0.2013337594057701E-01    0.0000000000000000E+00    0.0000000000000000E+00    0.4988878169330732E+00   -0.1365976820098301E-03    0.0000000000000000E+00    0.0000000000000000E+00    0.0000000000000000E+00    0.0000000000000000E+00    0.0000000000000000E+00
 -0.5429  -0.4530   -0.2066385737991017E-01    0.0000000000000000E+00    0.0000000000000000E+00    0.5000000000000000E+00    0.0000000000000000E+00    0.0000000000000000E+00    0.0000000000000000E+00    0.0000000000000000E+00    0.0000000000000000E+00    0.0000000000000000E+00
 -0.4520   0.5428    0.2425282683519437E-01    0.0000000000000000E+00    0.0000000000000000E+00   -0.5000000000000000E+00   -0.2574838081822215E-03    0.0000000000000000E+00    0.0000000000000000E+00    0.0000000000000000E+00    0.0000000000000000E+00    0.0000000000000000E+00
 -0.4521   0.5418    0.2478140576353147E-01    0.2967095237466313E-06   -0.2967893152756206E-06   -0.4960842449400645E+00   -0.5406006842036105E-03   -0.2079257983097246E-09    0.9100288519709593E-09    0.1569785696830389E-12    0.1406429226552541E-12   -0.8491836465777947E-11
 -0.4524   0.5386    0.2635320252417752E-01    0.3559025532779637E-05   -0.6587193276364566E-06   -0.4843553617505251E+00   -0.2277364233548570E-02   -0.2062415682386473E-08    0.9111439137898802E-09    0.3230297973555452E-12    0.2237353097928052E-12   -0.3494905623582789E-10
 -0.4528   0.5332    0.2891984556056128E-01    0.4388075161765944E-05    0.4539359172856157E-06   -0.4648779326364768E+00   -0.1530466599721034E-02   -0.2839527181771679E-08    0.9128487629423560E-09    0.3695568157047191E-12    0.1998917524559385E-12   -0.7857277328771062E-10
 -0.4535   0.5258    0.3235388716906915E-01   -0.1370286336381411E-04    0.2085396779151104E-05   -0.4377891242377477E+00    0.1543421529772217E-01    0.6873133368870513E-08    0.9155304210063664E-09    0.1510874758636760E-12    0.2322118192177314E-12   -0.1393856315090591E-09
 -0.4544   0.5164    0.3642166417659805E-01   -0.6395207665217046E-04    0.3487952493487363E-05   -0.4033349300756640E+00    0.6098406853583321E-01    0.3398961460369009E-07    0.9193114533512237E-09   -0.5715063838840351E-12    0.2718554548142293E-12   -0.2165533672521258E-09
 -0.4554   0.5049    0.4081081513683388E-01   -0.1470605441068530E-03    0.4153892650448746E-05   -0.3619078169684019E+00    0.1360996071995566E+00    0.7897194328299999E-07    0.9236908815948852E-09   -0.1940976025738284E-11    0.2682958022415249E-12   -0.3092614705990648E-09
 -0.4566   0.4915    0.4516665379017559E-01   -0.2500011833346826E-03    0.3946924407567723E-05   -0.3140869410598696E+00    0.2291981360433390E+00    0.1346279430325892E-06    0.9280047893328591E-09   -0.3950496180182839E-11    0.2985736657912241E-12   -0.4135717462938615E-09
 -0.4580   0.4761    0.4912830174104664E-01   -0.3487940292348729E-03    0.2877693241359454E-05   -0.2606960852524797E+00    0.3183728726035709E+00    0.1881143348429258E-06    0.9316204075543455E-09   -0.6448987177609666E-11    0.2972153773095343E-12   -0.5226286937942692E-09
 -0.4595   0.4589    0.5236038939350262E-01   -0.4136744530693485E-03    0.1139094508508697E-05   -0.2028970598868852E+00    0.3762927992977895E+00    0.2233391194286159E-06    0.9341622419188622E-09   -0.9205816664525912E-11    0.3014064692274943E-12   -0.6224359985762540E-09
 -0.4613   0.4399    0.5457971940791236E-01   -0.4153575644022656E-03   -0.1014796304590502E-05   -0.1423152631802832E+00    0.3758813288375348E+00    0.2246304986677997E-06    0.9353494465503404E-09   -0.1197532351060460E-10    0.2710349306100923E-12   -0.6907099128761196E-09
 -0.4631   0.4192    0.5557422043244283E-01   -0.3310986953557034E-03   -0.3274395521171666E-05   -0.8114791956834162E-01    0.2960086098579384E+00    0.1797436831440258E-06    0.9347195604331171E-09   -0.1455605080913358E-10    0.2538073917701666E-12   -0.6959079215662634E-09
 -0.4651   0.3970    0.5521500278816635E-01   -0.1483437402884580E-03   -0.5402712835339993E-05   -0.2214920727934136E-01    0.1248410858812759E+00    0.8201822876847985E-07    0.9309806311280644E-09   -0.1682869121832908E-10    0.2195708892482884E-12   -0.5990708623615504E-09
 -0.4673   0.3732    0.5346424810165118E-01    0.1357674397059640E-03   -0.7270480154064325E-05    0.3163719516473408E-01   -0.1404863739055636E+00   -0.7007454133469991E-07    0.9215178169152960E-09   -0.1872556276705239E-10    0.1416713968360739E-12   -0.3638882806189514E-09
 -0.4696   0.3480    0.5038164407957597E-01    0.5188648492007045E-03   -0.8903975823685048E-05    0.7745228798257887E-01   -0.4979456712347732E+00   -0.2752023849977619E-06    0.9023024653831424E-09   -0.2018629707833952E-10    0.9801187639268960E-13    0.2881714311619987E-10
 -0.4719   0.3215    0.4612567963521221E-01    0.9988755664524600E-03   -0.1040420827147990E-04    0.1135567098301065E+00   -0.9456331153015298E+00   -0.5322742370049201E-06    0.8685602514990620E-09   -0.2108978963688557E-10    0.3975986206938842E-13    0.5657908655476440E-09
 -0.4744   0.2938    0.4094281162580564E-01    0.1577087987009722E-02   -0.1188050365296873E-04    0.1397704390175036E+00   -0.1484621083756621E+01   -0.8419834181421627E-06    0.8160427056314035E-09   -0.2125662146301721E-10   -0.4087702398791748E-13    0.1196576150663820E-08
 -0.4770   0.2651    0.3514356784938149E-01    0.2257090842259881E-02   -0.1336217676480017E-04    0.1574673274751881E+00   -0.2117970189979260E+01   -0.1206324204784430E-05    0.7423576406373478E-09   -0.2045916908111067E-10   -0.1642852520689075E-12    0.1845399097422096E-08
 -0.4797   0.2354    0.2907594916995641E-01    0.3040486649892456E-02   -0.1478913542515111E-04    0.1689865103178731E+00   -0.2846801235900233E+01   -0.1626210386356601E-05    0.6476990437043195E-09   -0.1842449803834967E-10   -0.2259581410868350E-12    0.2436065110050789E-08
 -0.4825   0.2049    0.2310715942019882E-01    0.3921483320881203E-02   -0.1601160301478171E-04    0.1768038013764995E+00   -0.3665310878163849E+01   -0.2098629521804775E-05    0.5349349192773634E-09   -0.1484634637449744E-10   -0.3456124275658112E-12    0.2915291141304677E-08
 -0.4853   0.1737    0.1761358206831957E-01    0.4882674884990389E-02   -0.1684508226711167E-04    0.1829080336185043E+00   -0.4556941088853049E+01   -0.2614310814106689E-05    0.4091608371559197E-09   -0.9407905010583306E-11   -0.4448386103916846E-12    0.3261957249776036E-08
 -0.4881   0.1420    0.1296903266178184E-01    0.5893667721983957E-02   -0.1711085189667104E-04    0.1885918680270580E+00   -0.5493177139351767E+01   -0.3157018355343002E-05    0.2773992077709231E-09   -0.1882660694008109E-11   -0.5167394290239713E-12    0.3481682461651051E-08
 -0.4910   0.1098    0.9522768738067166E-02    0.6912872010314828E-02   -0.1668305336659039E-04    0.1945638691028103E+00   -0.6435278614512901E+01   -0.3704462522535659E-05    0.1478686513511906E-09    0.7727707362903402E-11   -0.5615369280675964E-12    0.3594749386614388E-08
 -0.4940   0.0774    0.7566995712776494E-02    0.7891344090836687E-02   -0.1549158009413940E-04    0.2011692753337105E+00   -0.7337870546946831E+01   -0.4230385443891528E-05    0.2947048161061616E-10    0.1910990810038982E-10   -0.5910411049470099E-12    0.3624889621973992E-08
 -0.4969   0.0448    0.7300252109674622E-02    0.8777092284667632E-02   -0.1351928653073950E-04    0.2085717731749087E+00   -0.8152940058755735E+01   -0.4706848092630168E-05   -0.6906963195829618E-10    0.3165956385942081E-10   -0.5653671975025532E-12    0.3593854329582424E-08
 -0.4998   0.0123    0.8794123422814892E-02    0.9518722321004607E-02   -0.1077846418728013E-04    0.2168568804766915E+00   -0.8833201991324222E+01   -0.5106205135042707E-05   -0.1403979120462306E-09    0.4454808744114302E-10   -0.5079686671294326E-12    0.3517617424772523E-08
 -0.5028  -0.0202    0.1196836537932076E-01    0.1006828046408777E-01   -0.7307046267011378E-05    0.2260766375273331E+00   -0.9334711605890838E+01   -0.5402625415272732E-05   -0.1793607866396041E-09    0.5678763015382060E-10   -0.3893899092055619E-12    0.3408911404025050E-08
 -0.5057  -0.0523    0.1657755146324446E-01    0.1038391649517458E-01   -0.3170826301434614E-05    0.2362639676290774E+00   -0.9619312046894237E+01   -0.5573528391427521E-05   -0.1838715924309953E-09    0.6741773805885032E-10   -0.2215328614996181E-12    0.3276060191355346E-08
 -0.5085  -0.0840    0.2221265233376727E-01    0.1043325146542123E-01    0.1510341210479949E-05    0.2474347012065878E+00   -0.9657707808189453E+01   -0.5601403794442166E-05   -0.1554752416220440E-09    0.7548384139965947E-10   -0.4530230357513432E-13    0.3125095368247677E-08
 -0.5114  -0.1152    0.2832268343405676E-01    0.1019788378895103E-01    0.6537717361145147E-05    0.2595855245252722E+00   -0.9433576612671800E+01   -0.5476232415548338E-05   -0.9918071225412106E-10    0.8024808595408217E-10    0.1768377111410757E-12    0.2960618175965046E-08
 -0.5141  -0.1457    0.3426158929643556E-01    0.9678558452736840E-02    0.1161420404441984E-04    0.2726911731575034E+00   -0.8948237143759494E+01   -0.5198300503942056E-05   -0.2330087164881256E-10    0.8117728711454220E-10    0.4158895450245836E-12    0.2785072330743765E-08
 -0.5168  -0.1754    0.3936139179225571E-01    0.8899438952045020E-02    0.1635687377077279E-04    0.2867022952799565E+00   -0.8224487253596132E+01   -0.4780491031509070E-05    0.6155546558583858E-10    0.7810241342554036E-10    0.6052658374500197E-12    0.2601229408955019E-08
 -0.5194  -0.2041    0.4302337610072181E-01    0.7909315184972544E-02    0.2034559841491856E-04    0.3015446199186538E+00   -0.7307592552094341E+01   -0.4248989349169241E-05    0.1442304192744714E-09    0.7131212287347921E-10    0.8051337374581635E-12    0.2409474259001954E-08
 -0.5219  -0.2318    0.4480854200036113E-01    0.6777916422249715E-02    0.2320409292601024E-04    0.3171194155410086E+00   -0.6261849675811340E+01   -0.3641266385455288E-05    0.2148416028413536E-09    0.6154954323989159E-10    0.9808820422563258E-12    0.2211441597552155E-08
 -0.5243  -0.2583    0.4450257470139175E-01    0.5587046739995460E-02    0.2468927292028816E-04    0.3333044798083561E+00   -0.5162418129069836E+01   -0.3001364308608390E-05    0.2665948434232845E-09    0.4994799018831486E-10    0.1127889448504504E-11    0.2008151391702517E-08
 -0.5265  -0.2835    0.4213557197647307E-01    0.4418385237312449E-02    0.2474840831558153E-04    0.3499542722956351E+00   -0.4084208487235447E+01   -0.2373248242034663E-05    0.2968699383543161E-09    0.3781017166026857E-10    0.1203467880905862E-11    0.1800515462418995E-08
 -0.5287  -0.3073    0.3795166664556510E-01    0.3341425915265514E-02    0.2352765278490722E-04    0.3668977654797779E+00   -0.3090873242510864E+01   -0.1794379928484593E-05    0.3070998524923318E-09    0.2638375629082645E-10    0.1244074288031527E-11    0.1590941794971101E-08
 -0.5307  -0.3296    0.3234199573345448E-01    0.2405067322172671E-02    0.2131435125351909E-04    0.3839336051213682E+00   -0.2227206883981563E+01   -0.1291072913192402E-05    0.3017064792443236E-09    0.1659730686220939E-10    0.1245864522658735E-11    0.1381009600079364E-08
 -0.5326  -0.3502    0.2576513284334651E-01    0.1634798283048449E-02    0.1845880033151425E-04    0.4008242514541390E+00   -0.1516551950951444E+01   -0.8770937649084289E-06    0.2863600051528081E-09    0.8959742670011650E-11    0.1210434530385385E-11    0.1174209248930302E-08
 -0.5343  -0.3692    0.1867854134760295E-01    0.1035144739325618E-02    0.1527912995227891E-04    0.4172930782275380E+00   -0.9630873623885380E+00   -0.5548328363167760E-06    0.2666091444836205E-09    0.3560391564905174E-11    0.1169384034049870E-11    0.9746411282207657E-09
 -0.5358  -0.3864    0.1149402306574085E-01    0.5953214697459096E-03    0.1201898115523030E-04    0.4330293570347170E+00   -0.5569018092327538E+00   -0.3185375508630156E-06    0.2467144891160622E-09    0.1727615446533992E-12    0.1140358640849826E-11    0.7854831663572925E-09
 -0.5372  -0.4018    0.4558656532766151E-02    0.2954851288922382E-03    0.8817351787704656E-05    0.4477042401043745E+00   -0.2797613752275239E+00   -0.1574657755486402E-06    0.2294248818701661E-09   -0.1625692636064713E-11    0.1106052749388908E-11    0.6110328423791778E-09
 -0.5384  -0.4152   -0.1846549955049436E-02    0.1114923301745759E-03    0.5767849071217916E-05    0.4609963526738832E+00   -0.1093212201562162E+00   -0.5873449985295033E-07    0.2159043794441873E-09   -0.2303622570476449E-11    0.1073908323379058E-11    0.4540597810936964E-09
 -0.5395  -0.4267   -0.7500294232689722E-02    0.1726186160615972E-04    0.2960287039139887E-05    0.4726204998044670E+00   -0.2141573316963317E-01   -0.8243304863044321E-08    0.2063023181106405E-09   -0.2315033581501424E-11    0.1043975669801078E-11    0.3181417967609845E-09
 -0.5403  -0.4362   -0.1223711507025578E-01   -0.1482746385929854E-04    0.6395289032898214E-06    0.4823503387744305E+00    0.9697133515740039E-02    0.8674412837766813E-08    0.1997600383718545E-09   -0.2030816487197384E-11    0.1057054617448205E-11    0.2048112595319507E-09
 -0.5410  -0.4436   -0.1594971374782287E-01   -0.1329490919896191E-04   -0.8425003855760242E-06    0.4900276651790367E+00    0.1026285570698228E-01    0.7551820663719140E-08    0.1951886078981058E-09   -0.1710531022380835E-11    0.1025523849867982E-11    0.1157102499753371E-09
 -0.5415  -0.4489   -0.1859458698172367E-01   -0.3854357946416758E-05   -0.1041456488974078E-05    0.4955566402900641E+00    0.3571442625556750E-02    0.2039405442625966E-08    0.1905199051906864E-09   -0.1438160788375109E-11    0.1088541583260660E-11    0.5178189062433891E-10
 -0.5418  -0.4521   -0.2017940346289758E-01   -0.9910459868451853E-07   -0.9939112579791900E-07    0.4988877786356770E+00    0.5081336586040314E-03    0.8674768872031479E-10    0.1855849101782200E-09   -0.7481821152205415E-12    0.7405168058610689E-12    0.1265198037482540E-10
 -0.5418  -0.4531   -0.2070993915605996E-01    0.0000000000000000E+00    0.0000000000000000E+00    0.5000000000000000E+00   -0.1360150827163720E-03    0.0000000000000000E+00    0.0000000000000000E+00    0.0000000000000000E+00    0.0000000000000000E+00    0.0000000000000000E+00
 -0.4488   0.5425    0.2438954216776154E-01    0.0000000000000000E+00    0.0000000000000000E+00   -0.5000000000000000E+00   -0.4390088172949503E-02    0.0000000000000000E+00    0.0000000000000000E+00    0.0000000000000000E+00    0.0000000000000000E+00    0.0000000000000000E+00
 -0.4489   0.5415    0.2491837811318197E-01    0.6585914013808171E-06   -0.3559103030858755E-05   -0.4960830352612770E+00   -0.2277279541364021E-02   -0.2062489912275147E-08    0.9109850519339185E-09    0.2336444839684537E-12    0.2434722345609486E-12   -0.8773984468656015E-11
 -0.4492   0.5383    0.2648848072452795E-01    0.4219383551852507E-05   -0.4219507827935875E-05   -0.4843505472421734E+00    0.2828886228800074E-02   -0.1770031891364842E-07    0.9114559026144123E-09    0.7229733305080810E-12    0.5997255643486188E-12   -0.3481106982533566E-10
 -0.4496   0.5330    0.2904238424245368E-01   -0.6401142723346549E-05    0.9550808430772981E-05   -0.4648672832065254E+00    0.1058917929429061E-01   -0.7472695502392493E-08    0.9127932906055625E-09    0.9109735535361985E-12    0.8911491336527355E-12   -0.7853610383551368E-10
 -0.4503   0.5256    0.3245172503804349E-01   -0.8102645901134149E-04    0.3221597411775971E-04   -0.4377708258745466E+00    0.2836881747527077E-01    0.1499113602173381E-06    0.9151850128424899E-09    0.4002007059078494E-13    0.1256352660794491E-11   -0.1391883743678823E-09
 -0.4512   0.5161    0.3649306744937475E-01   -0.2667984674849450E-03    0.5239447097020254E-04   -0.4033076444664302E+00    0.6643002216719940E-01    0.5608929254589666E-06    0.9186532194671582E-09   -0.2698304904166782E-11    0.1633481544471849E-11   -0.2167395395102911E-09
 -0.4522   0.5046    0.4086167443363595E-01   -0.5698244723105741E-03    0.6240006985797356E-04   -0.3618703259124493E+00    0.1275464198892946E+00    0.1236084879188741E-05    0.9227853169091471E-09   -0.7855615463681076E-11    0.1954686412730666E-11   -0.3093834181899791E-09
 -0.4534   0.4912    0.4520658671075014E-01   -0.9442403346515983E-03    0.5912461962762030E-04   -0.3140375402985031E+00    0.2030704463956337E+00    0.2071435799596664E-05    0.9269535070077772E-09   -0.1543720706820295E-10    0.2127917633765186E-11   -0.4140597864576989E-09
 -0.4548   0.4758    0.4916729753887206E-01   -0.1300876914617160E-02    0.4274541112370991E-04   -0.2606321365045748E+00    0.2742271822027465E+00    0.2870143432735843E-05    0.9305573152318392E-09   -0.2493736467323870E-10    0.2189885425774030E-11   -0.5231202970801263E-09