 title="result"
 variables="x","y","P","u","v","t","omega","psi","RES1","RES2","RES3","RES4"
zone,j= 49,i= 49,f=point
 -0.4791   0.5200    0.2321427116186739E-01    0.0000000000000000E+00    0.0000000000000000E+00   -0.5000000000000000E+00    0.0000000000000000E+00    0.0000000000000000E+00    0.0000000000000000E+00    0.0000000000000000E+00    0.0000000000000000E+00    0.0000000000000000E+00
 -0.4792   0.5190    0.2374452807487504E-01    0.0000000000000000E+00    0.0000000000000000E+00   -0.4962386748911388E+00   -0.3262378458982385E-03    0.0000000000000000E+00    0.0000000000000000E+00    0.0000000000000000E+00    0.0000000000000000E+00    0.0000000000000000E+00
 -0.4793   0.5158    0.2532724400776381E-01    0.0000000000000000E+00    0.0000000000000000E+00   -0.4849722692201007E+00   -0.4488057235833605E-02    0.0000000000000000E+00    0.0000000000000000E+00    0.0000000000000000E+00    0.0000000000000000E+00    0.0000000000000000E+00
 -0.4795   0.5104    0.2792466834233975E-01    0.0000000000000000E+00    0.0000000000000000E+00   -0.4662619660887045E+00   -0.3287397701925439E-02    0.0000000000000000E+00    0.0000000000000000E+00    0.0000000000000000E+00    0.0000000000000000E+00    0.0000000000000000E+00
 -0.4798   0.5030    0.3140383123302198E-01    0.0000000000000000E+00    0.0000000000000000E+00   -0.4402355363145385E+00    0.2463526097061586E-01    0.0000000000000000E+00    0.0000000000000000E+00    0.0000000000000000E+00    0.0000000000000000E+00    0.0000000000000000E+00
 -0.4802   0.4935    0.3551210159077300E-01    0.0000000000000000E+00    0.0000000000000000E+00   -0.4071160413921533E+00    0.9362767597758948E-01    0.0000000000000000E+00    0.0000000000000000E+00    0.0000000000000000E+00    0.0000000000000000E+00    0.0000000000000000E+00
 -0.4807   0.4820    0.3992024671903806E-01    0.0000000000000000E+00    0.0000000000000000E+00   -0.3672462759758399E+00    0.2025021294919827E+00    0.0000000000000000E+00    0.0000000000000000E+00    0.0000000000000000E+00    0.0000000000000000E+00    0.0000000000000000E+00
 -0.4812   0.4685    0.4426333082229404E-01    0.0000000000000000E+00    0.0000000000000000E+00   -0.3211116540385415E+00    0.3343109143377624E+00    0.0000000000000000E+00    0.0000000000000000E+00    0.0000000000000000E+00    0.0000000000000000E+00    0.0000000000000000E+00
 -0.4819   0.4531    0.4818161040111959E-01    0.0000000000000000E+00    0.0000000000000000E+00   -0.2693832411914707E+00    0.4600691002020861E+00    0.0000000000000000E+00    0.0000000000000000E+00    0.0000000000000000E+00    0.0000000000000000E+00    0.0000000000000000E+00
 -0.4826   0.4358    0.5135290061228331E-01    0.0000000000000000E+00    0.0000000000000000E+00   -0.2130099216364598E+00    0.5453442315048184E+00    0.0000000000000000E+00    0.0000000000000000E+00    0.0000000000000000E+00    0.0000000000000000E+00    0.0000000000000000E+00
 -0.4834   0.4168    0.5351603095810654E-01    0.0000000000000000E+00    0.0000000000000000E+00   -0.1533694016812704E+00    0.5582014116282552E+00    0.0000000000000000E+00    0.0000000000000000E+00    0.0000000000000000E+00    0.0000000000000000E+00    0.0000000000000000E+00
 -0.4842   0.3961    0.5448081823881411E-01    0.0000000000000000E+00    0.0000000000000000E+00   -0.9243640608884197E-01    0.4765091791843166E+00    0.0000000000000000E+00    0.0000000000000000E+00    0.0000000000000000E+00    0.0000000000000000E+00    0.0000000000000000E+00
 -0.4851   0.3737    0.5413017509766894E-01    0.0000000000000000E+00    0.0000000000000000E+00   -0.3285320847193172E-01    0.2914709632642690E+00    0.0000000000000000E+00    0.0000000000000000E+00    0.0000000000000000E+00    0.0000000000000000E+00    0.0000000000000000E+00
 -0.4861   0.3498    0.5242280527245974E-01    0.0000000000000000E+00    0.0000000000000000E+00    0.2226291446372350E-01    0.5581192759073251E-02    0.0000000000000000E+00    0.0000000000000000E+00    0.0000000000000000E+00    0.0000000000000000E+00    0.0000000000000000E+00
 -0.4871   0.3246    0.4940384551559554E-01    0.0000000000000000E+00    0.0000000000000000E+00    0.6988292698209093E-01   -0.3738336988402604E+00    0.0000000000000000E+00    0.0000000000000000E+00    0.0000000000000000E+00    0.0000000000000000E+00    0.0000000000000000E+00
 -0.4882   0.2980    0.4521605856828761E-01    0.0000000000000000E+00    0.0000000000000000E+00    0.1078854938904631E+00   -0.8412989687091021E+00    0.0000000000000000E+00    0.0000000000000000E+00    0.0000000000000000E+00    0.0000000000000000E+00    0.0000000000000000E+00
 -0.4894   0.2702    0.4009723897735828E-01    0.0000000000000000E+00    0.0000000000000000E+00    0.1357434870548714E+00   -0.1396273562201587E+01    0.0000000000000000E+00    0.0000000000000000E+00    0.0000000000000000E+00    0.0000000000000000E+00    0.0000000000000000E+00
 -0.4905   0.2414    0.3435756211592670E-01    0.0000000000000000E+00    0.0000000000000000E+00    0.1546398087967940E+00   -0.2041652241578119E+01    0.0000000000000000E+00    0.0000000000000000E+00    0.0000000000000000E+00    0.0000000000000000E+00    0.0000000000000000E+00
 -0.4918   0.2116    0.2834933032154950E-01    0.0000000000000000E+00    0.0000000000000000E+00    0.1669039252738155E+00   -0.2779248011200167E+01    0.0000000000000000E+00    0.0000000000000000E+00    0.0000000000000000E+00    0.0000000000000000E+00    0.0000000000000000E+00
 -0.4930   0.1810    0.2244431202759815E-01    0.0000000000000000E+00    0.0000000000000000E+00    0.1751189615390686E+00   -0.3604320438296090E+01    0.0000000000000000E+00    0.0000000000000000E+00    0.0000000000000000E+00    0.0000000000000000E+00    0.0000000000000000E+00
 -0.4943   0.1497    0.1702116872844250E-01    0.0000000000000000E+00    0.0000000000000000E+00    0.1814092479276292E+00   -0.4501223548460006E+01    0.0000000000000000E+00    0.0000000000000000E+00    0.0000000000000000E+00    0.0000000000000000E+00    0.0000000000000000E+00
 -0.4956   0.1179    0.1245248153600642E-01    0.0000000000000000E+00    0.0000000000000000E+00    0.1871740378000386E+00   -0.5441803822255149E+01    0.0000000000000000E+00    0.0000000000000000E+00    0.0000000000000000E+00    0.0000000000000000E+00    0.0000000000000000E+00
 -0.4969   0.0857    0.9082279701014710E-02    0.0000000000000000E+00    0.0000000000000000E+00    0.1931854929723197E+00   -0.6386983415003171E+01    0.0000000000000000E+00    0.0000000000000000E+00    0.0000000000000000E+00    0.0000000000000000E+00    0.0000000000000000E+00
 -0.4982   0.0531    0.7193200038188644E-02    0.0000000000000000E+00    0.0000000000000000E+00    0.1998197056256397E+00   -0.7290458203676611E+01    0.0000000000000000E+00    0.0000000000000000E+00    0.0000000000000000E+00    0.0000000000000000E+00    0.0000000000000000E+00
 -0.4996   0.0204    0.6969859083998770E-02    0.0000000000000000E+00    0.0000000000000000E+00    0.2072530738620900E+00   -0.8102943808953999E+01    0.0000000000000000E+00    0.0000000000000000E+00    0.0000000000000000E+00    0.0000000000000000E+00    0.0000000000000000E+00
 -0.5009  -0.0122    0.8465892777603604E-02    0.0000000000000000E+00    0.0000000000000000E+00    0.2155757207102044E+00   -0.8775850399008077E+01    0.0000000000000000E+00    0.0000000000000000E+00    0.0000000000000000E+00    0.0000000000000000E+00    0.0000000000000000E+00
 -0.5023  -0.0448    0.1158024997688638E-01    0.0000000000000000E+00    0.0000000000000000E+00    0.2248411260729433E+00   -0.9264241554183057E+01    0.0000000000000000E+00    0.0000000000000000E+00    0.0000000000000000E+00    0.0000000000000000E+00    0.0000000000000000E+00
 -0.5036  -0.0770    0.1604605424945609E-01    0.0000000000000000E+00    0.0000000000000000E+00    0.2350824122595297E+00   -0.9529630555349026E+01    0.0000000000000000E+00    0.0000000000000000E+00    0.0000000000000000E+00    0.0000000000000000E+00    0.0000000000000000E+00
 -0.5049  -0.1089    0.2143584414535261E-01    0.0000000000000000E+00    0.0000000000000000E+00    0.2463150020713048E+00   -0.9543389667647030E+01    0.0000000000000000E+00    0.0000000000000000E+00    0.0000000000000000E+00    0.0000000000000000E+00    0.0000000000000000E+00
 -0.5062  -0.1401    0.2718793317269599E-01    0.0000000000000000E+00    0.0000000000000000E+00    0.2585347899715580E+00   -0.9291061749911766E+01    0.0000000000000000E+00    0.0000000000000000E+00    0.0000000000000000E+00    0.0000000000000000E+00    0.0000000000000000E+00
 -0.5074  -0.1707    0.3265820354227310E-01    0.0000000000000000E+00    0.0000000000000000E+00    0.2717154893643223E+00   -0.8777006530100657E+01    0.0000000000000000E+00    0.0000000000000000E+00    0.0000000000000000E+00    0.0000000000000000E+00    0.0000000000000000E+00
 -0.5086  -0.2005    0.3719641403347618E-01    0.0000000000000000E+00    0.0000000000000000E+00    0.2858066731269497E+00   -0.8027835732469873E+01    0.0000000000000000E+00    0.0000000000000000E+00    0.0000000000000000E+00    0.0000000000000000E+00    0.0000000000000000E+00
 -0.5098  -0.2293    0.4023700028921777E-01    0.0000000000000000E+00    0.0000000000000000E+00    0.3007331182081034E+00   -0.7092678525516853E+01    0.0000000000000000E+00    0.0000000000000000E+00    0.0000000000000000E+00    0.0000000000000000E+00    0.0000000000000000E+00
 -0.5109  -0.2571    0.4138445968511073E-01    0.0000000000000000E+00    0.0000000000000000E+00    0.3163953555592851E+00   -0.6038803393045794E+01    0.0000000000000000E+00    0.0000000000000000E+00    0.0000000000000000E+00    0.0000000000000000E+00    0.0000000000000000E+00
 -0.5120  -0.2837    0.4046972888942081E-01    0.0000000000000000E+00    0.0000000000000000E+00    0.3326705702062628E+00   -0.4942697922242935E+01    0.0000000000000000E+00    0.0000000000000000E+00    0.0000000000000000E+00    0.0000000000000000E+00    0.0000000000000000E+00
 -0.5131  -0.3089    0.3756053914982038E-01    0.0000000000000000E+00    0.0000000000000000E+00    0.3494124199986319E+00   -0.3878613058071183E+01    0.0000000000000000E+00    0.0000000000000000E+00    0.0000000000000000E+00    0.0000000000000000E+00    0.0000000000000000E+00
 -0.5140  -0.3328    0.3292448165922708E-01    0.0000000000000000E+00    0.0000000000000000E+00    0.3664484262847718E+00   -0.2907867947274557E+01    0.0000000000000000E+00    0.0000000000000000E+00    0.0000000000000000E+00    0.0000000000000000E+00    0.0000000000000000E+00
 -0.5150  -0.3552    0.2696012287284877E-01    0.0000000000000000E+00    0.0000000000000000E+00    0.3835747523151266E+00   -0.2071941665212350E+01    0.0000000000000000E+00    0.0000000000000000E+00    0.0000000000000000E+00    0.0000000000000000E+00    0.0000000000000000E+00
 -0.5158  -0.3759    0.2012019274361046E-01    0.0000000000000000E+00    0.0000000000000000E+00    0.4005503412635573E+00   -0.1390787184099476E+01    0.0000000000000000E+00    0.0000000000000000E+00    0.0000000000000000E+00    0.0000000000000000E+00    0.0000000000000000E+00
 -0.5166  -0.3949    0.1284816146395857E-01    0.0000000000000000E+00    0.0000000000000000E+00    0.4170945891757447E+00   -0.8657328819301640E+00    0.0000000000000000E+00    0.0000000000000000E+00    0.0000000000000000E+00    0.0000000000000000E+00    0.0000000000000000E+00
 -0.5173  -0.4122    0.5538963433280125E-02    0.0000000000000000E+00    0.0000000000000000E+00    0.4328933815101812E+00   -0.4849500328012746E+00    0.0000000000000000E+00    0.0000000000000000E+00    0.0000000000000000E+00    0.0000000000000000E+00    0.0000000000000000E+00
 -0.5179  -0.4276   -0.1476431748588467E-02    0.0000000000000000E+00    0.0000000000000000E+00    0.4476161654195111E+00   -0.2291460853136313E+00    0.0000000000000000E+00    0.0000000000000000E+00    0.0000000000000000E+00    0.0000000000000000E+00    0.0000000000000000E+00
 -0.5185  -0.4411   -0.7930569570109397E-02    0.0000000000000000E+00    0.0000000000000000E+00    0.4609420969416541E+00   -0.7572014489310681E-01    0.0000000000000000E+00    0.0000000000000000E+00    0.0000000000000000E+00    0.0000000000000000E+00    0.0000000000000000E+00
 -0.5189  -0.4526   -0.1361287185818618E-01    0.0000000000000000E+00    0.0000000000000000E+00    0.4725884323479628E+00   -0.7360471040169672E-03    0.0000000000000000E+00    0.0000000000000000E+00    0.0000000000000000E+00    0.0000000000000000E+00    0.0000000000000000E+00
 -0.5193  -0.4621   -0.1836594422899028E-01    0.0000000000000000E+00    0.0000000000000000E+00    0.4823321685772893E+00    0.2083928922258494E-01    0.0000000000000000E+00    0.0000000000000000E+00    0.0000000000000000E+00    0.0000000000000000E+00    0.0000000000000000E+00
 -0.5196  -0.4695   -0.2208757793366542E-01    0.0000000000000000E+00    0.0000000000000000E+00    0.4900181443863673E+00    0.1454005685138264E-01    0.0000000000000000E+00    0.0000000000000000E+00    0.0000000000000000E+00    0.0000000000000000E+00    0.0000000000000000E+00
 -0.5199  -0.4749   -0.2473599131462833E-01    0.0000000000000000E+00    0.0000000000000000E+00    0.4955525286973483E+00    0.3486928277379850E-02    0.0000000000000000E+00    0.0000000000000000E+00    0.0000000000000000E+00    0.0000000000000000E+00    0.0000000000000000E+00
 -0.5200  -0.4781   -0.2632300448456701E-01    0.0000000000000000E+00    0.0000000000000000E+00    0.4988867571235904E+00   -0.1481556149181625E-03    0.0000000000000000E+00    0.0000000000000000E+00    0.0000000000000000E+00    0.0000000000000000E+00    0.0000000000000000E+00
 -0.5200  -0.4791   -0.2685539454268501E-01    0.0000000000000000E+00    0.0000000000000000E+00    0.5000000000000000E+00    0.0000000000000000E+00    0.0000000000000000E+00    0.0000000000000000E+00    0.0000000000000000E+00    0.0000000000000000E+00    0.0000000000000000E+00
 -0.4781   0.5200    0.2323871176459247E-01    0.0000000000000000E+00    0.0000000000000000E+00   -0.5000000000000000E+00   -0.3262805276347892E-03    0.0000000000000000E+00    0.0000000000000000E+00    0.0000000000000000E+00    0.0000000000000000E+00    0.0000000000000000E+00
 -0.4781   0.5189    0.2376888709824565E-01    0.3318254213189350E-06   -0.3318730247265037E-06   -0.4962386013818324E+00   -0.5431083261179437E-03   -0.2346676378700886E-09    0.7715713876187483E-09    0.2147539416262612E-12    0.1915976058364244E-12   -0.8347910416314080E-11
 -0.4782   0.5157    0.2534990378930994E-01    0.3354475712299782E-05   -0.5255595990587387E-06   -0.4849719775893275E+00   -0.1750776539789838E-02   -0.2003664936126394E-08    0.7730129506335406E-09    0.4165903733088783E-12    0.2869612100026009E-12   -0.3308137487903484E-10
 -0.4785   0.5104    0.2793982372925367E-01    0.4805358062796742E-06    0.1051019405125158E-05   -0.4662613304706843E+00    0.2517456334650597E-02   -0.8134652140227700E-09    0.7748906399353273E-09    0.4802599290476550E-12    0.2706541588071154E-12   -0.7484080803005222E-10
 -0.4788   0.5030    0.3140755850264042E-01   -0.2918917720934730E-04    0.3133792448871519E-05   -0.4402344784258982E+00    0.2995554870617576E-01    0.1516013665182570E-07    0.7775221438910407E-09    0.3381288304904473E-12    0.3090583344800280E-12   -0.1329078106251935E-09
 -0.4791   0.4935    0.3550615186497746E-01   -0.1009223860143436E-03    0.4838415597718800E-05   -0.4071145337318109E+00    0.9495715145797698E-01    0.5388828465820849E-07    0.7812185568584207E-09   -0.2029019313676272E-12    0.3100610046491425E-12   -0.2074630345988426E-09
 -0.4796   0.4820    0.3990882068315676E-01   -0.2140498919512921E-03    0.5575601511615240E-05   -0.3672443020387894E+00    0.1973792503877428E+00    0.1150785074496250E-06    0.7856940202610740E-09   -0.1284668552092860E-11    0.3543935978012058E-12   -0.2986636302854118E-09
 -0.4802   0.4685    0.4425168080206924E-01   -0.3511588051219599E-03    0.5221427250496597E-05   -0.3211091439553990E+00    0.3217039597245097E+00    0.1891520779724021E-06    0.7905525470364161E-09   -0.2933979448282997E-11    0.3442281182319817E-12   -0.4046984448946578E-09
 -0.4808   0.4531    0.4817457821099664E-01   -0.4819410604331783E-03    0.3818145847578475E-05   -0.2693800163752335E+00    0.4402515487458081E+00    0.2598592347557011E-06    0.7953449348771513E-09   -0.5082552434476639E-11    0.3721224717256888E-12   -0.5226009069936310E-09
 -0.4815   0.4358    0.5135417874605449E-01   -0.5701191342600231E-03    0.1645845255614660E-05   -0.2130056828710859E+00    0.5197112150242880E+00    0.3075955530739082E-06    0.7998416126468733E-09   -0.7580117089567295E-11    0.3483038510387892E-12   -0.6428236068445337E-09
 -0.4823   0.4167    0.5352748587872788E-01   -0.5818610447971087E-03   -0.9424090402876814E-06   -0.1533637890526650E+00    0.5287869635683310E+00    0.3142555335323856E-06    0.8039199169643935E-09   -0.1025236839868882E-10    0.3208284332645306E-12   -0.7484604602758793E-09
 -0.4831   0.3960    0.5450249105329775E-01   -0.4935216872555412E-03   -0.3536894983127995E-05   -0.9242914680829822E-01    0.4454523817830318E+00    0.2671174279190227E-06    0.8073813484096859E-09   -0.1293111451250439E-10    0.3383890390118438E-12   -0.8112783500546783E-09
 -0.4841   0.3737    0.5416071511793633E-01   -0.2954620571255731E-03   -0.5852840013461477E-05   -0.3284433057306244E-01    0.2604780189673450E+00    0.1611083179760727E-06    0.8093422824290153E-09   -0.1549103900710946E-10    0.2987020353284464E-12   -0.7914871119618638E-09
 -0.4850   0.3498    0.5246044673929161E-01    0.9993260311548215E-05   -0.7764176894074157E-05    0.2227289893973221E-01   -0.2427858545756032E-01   -0.2506965764802908E-08    0.8077054129695949E-09   -0.1783366510021978E-10    0.2595770820512655E-12   -0.6450774359123557E-09
 -0.4861   0.3245    0.4944724579197071E-01    0.4152708877150690E-03   -0.9344435821142813E-05    0.6989302563357934E-01   -0.4020068719714534E+00   -0.2195919391753576E-06    0.7987798270048252E-09   -0.1986649733609624E-10    0.1733058141439869E-12   -0.3388278962956903E-09
 -0.4872   0.2980    0.4526475504030518E-01    0.9145796879570649E-03   -0.1074196562650413E-04    0.1078945192053406E+00   -0.8673543542235105E+00   -0.4870644104181919E-06    0.7777736996117390E-09   -0.2144939781345556E-10    0.1201261312644419E-12    0.1301299415445989E-09
 -0.4883   0.2702    0.4015145685516897E-01    0.1507192415022980E-02   -0.1210164135433889E-04    0.1357505111389168E+00   -0.1419509295215638E+01   -0.8045352289142207E-06    0.7400380030997411E-09   -0.2239931157221875E-10    0.4315298118839905E-13    0.7234495849606226E-09
 -0.4895   0.2414    0.3441774004496824E-01    0.2195895380048627E-02   -0.1346861846600577E-04    0.1546445004638992E+00   -0.2060775394495465E+01   -0.1173573973595696E-05    0.6823961465340922E-09   -0.2249914837770817E-10   -0.5825201432330118E-13    0.1368755005171085E-08
 -0.4907   0.2116    0.2841551254715194E-01    0.2982217011272297E-02   -0.1479215380019626E-04    0.1669065537590850E+00   -0.2792198571431180E+01   -0.1595052502181644E-05    0.6041561417813313E-09   -0.2150288280766688E-10   -0.1662558979376172E-12    0.1985230778378533E-08
 -0.4919   0.1810    0.2251572033906093E-01    0.3860657896472889E-02   -0.1592239250103943E-04    0.1751201195701354E+00   -0.3608240571893883E+01   -0.2066119785065579E-05    0.5071674642753710E-09   -0.1914295978677760E-10   -0.2610689442406056E-12    0.2509934122520152E-08
 -0.4932   0.1497    0.1709597335225142E-01    0.4814139379317016E-02   -0.1667207022315241E-04    0.1814095320356465E+00   -0.4492643674592882E+01   -0.2577678191979603E-05    0.3955802248267748E-09   -0.1509852659564714E-10   -0.3823746874687117E-12    0.2911649681341250E-08
 -0.4945   0.1179    0.1252790196686964E-01    0.5812391693621944E-02   -0.1685556154646569E-04    0.1871738710640629E+00   -0.5417008908623101E+01   -0.3113561080464681E-05    0.2754009520433698E-09   -0.9123729549642690E-11   -0.4615058335488698E-12    0.3188805300325878E-08
 -0.4958   0.0856    0.9154838460716351E-02    0.6813704884983388E-02   -0.1634340210328254E-04    0.1931851076952692E+00   -0.6342493385428567E+01   -0.3651409782652587E-05    0.1540309650660543E-09   -0.1139144334416642E-11   -0.5293127047778512E-12    0.3356986257550820E-08
 -0.4972   0.0531    0.7259071982288649E-02    0.7768893734486459E-02   -0.1506318042873104E-04    0.1998192037673394E+00   -0.7223511968808828E+01   -0.4164837023980034E-05    0.3955786045950482E-10    0.8622297320570738E-11   -0.5562911242762425E-12    0.3437246625347112E-08
 -0.4985   0.0204    0.7025124427365957E-02    0.8625809577948404E-02   -0.1300070443437671E-04    0.2072524907789932E+00   -0.8011925174248987E+01   -0.4625813144167503E-05   -0.5994911511653100E-10    0.1968419871545279E-10   -0.5311584505562905E-12    0.3450313737843325E-08
 -0.4998  -0.0123    0.8506740786301911E-02    0.9333227956159776E-02   -0.1017398732207241E-04    0.2155750647961906E+00   -0.8660624444327624E+01   -0.5006783052264288E-05   -0.1373232812185154E-09    0.3130057324440827E-10   -0.4750713711310084E-12    0.3412151312366662E-08
 -0.5012  -0.0448    0.1160310043327413E-01    0.9843964940389650E-02   -0.6632786062613570E-05    0.2248403972794252E+00   -0.9126396193886690E+01   -0.5282322606438116E-05   -0.1873898605730950E-09    0.4261968555852036E-10   -0.3650517388376073E-12    0.3335285994436610E-08
 -0.5025  -0.0771    0.1604774915484043E-01    0.1011781515943454E-01   -0.2458530281016769E-05    0.2350816092942229E+00   -0.9372615803105266E+01   -0.5430735284631838E-05   -0.2075858356737070E-09    0.5275613279565050E-10   -0.2121063741311602E-12    0.3228656485394776E-08
 -0.5038  -0.1089    0.2141390665697118E-01    0.1012512004690668E-01    0.2208753114954944E-05    0.2463141248834635E+00   -0.9372501378130861E+01   -0.5435969444542847E-05   -0.1984746022046235E-09    0.6083294978864728E-10   -0.1380666414529941E-13    0.3098534441178802E-08
 -0.5051  -0.1402    0.2714098032427140E-01    0.9851263704225602E-02    0.7151396563759566E-05    0.2585338403743763E+00   -0.9113206901428683E+01   -0.5290046507098979E-05   -0.1638840070594672E-09    0.6613903869023829E-10    0.2079378336183879E-12    0.2949764233220464E-08
 -0.5063  -0.1708    0.3258637642542245E-01    0.9301486599059933E-02    0.1205923067788851E-04    0.2717144706801827E+00   -0.8600161094923280E+01   -0.4995673151631776E-05   -0.1105316706218051E-09    0.6816835984579939E-10    0.4156605615257547E-12    0.2785753756145981E-08
 -0.5076  -0.2006    0.3710175381319653E-01    0.8504400745280596E-02    0.1655061656571027E-04    0.2858055890978167E+00   -0.7860209432985938E+01   -0.4568136985553070E-05   -0.4728573435586192E-10    0.6665812346540179E-10    0.6214195824583157E-12    0.2608448861421420E-08
 -0.5087  -0.2294    0.4012352075110093E-01    0.7512168576809123E-02    0.2022456704232947E-04    0.3007319714441262E+00   -0.6941669627143733E+01   -0.4035444201700653E-05    0.1618537942560394E-10    0.6179629030711453E-10    0.8389955397092308E-12    0.2420585129905839E-08
 -0.5099  -0.2571    0.4125786171343769E-01    0.6395836181173082E-02    0.2274165076860655E-04    0.3163941461083009E+00   -0.5910007049693877E+01   -0.3435785412075084E-05    0.7120744965893877E-10    0.5414058090735807E-10    0.1000574623155615E-11    0.2223490584360444E-08
 -0.5110  -0.2837    0.4033668209845106E-01    0.5235951127888985E-02    0.2390457819000684E-04    0.3326692951710797E+00   -0.4839207474195596E+01   -0.2812526829099948E-05    0.1115714742816465E-09    0.4463418523670271E-10    0.1126446158572492E-11    0.2018866322381352E-08
 -0.5120  -0.3090    0.3742777287247946E-01    0.4110575105165059E-02    0.2370323393051416E-04    0.3494110752173128E+00   -0.3800861690700891E+01   -0.2207689542139317E-05    0.1346092751153272E-09    0.3440503437701636E-10    0.1229322199591820E-11    0.1808512832546239E-08
 -0.5130  -0.3329    0.3279786747225225E-01    0.3084120751390691E-02    0.2231160840512304E-04    0.3664470106686261E+00   -0.2853977349279799E+01   -0.1655992212114875E-05    0.1411126562822496E-09    0.2453134917423938E-10    0.1265945681616643E-11    0.1595791674149916E-08
 -0.5139  -0.3552    0.2684408698443508E-01    0.2200154659315714E-02    0.2002441895299296E-04    0.3835732743737812E+00   -0.2038476547411363E+01   -0.1180877896785588E-05    0.1345394351481843E-09    0.1587671660807644E-10    0.1285901940484280E-11    0.1382626719712010E-08
 -0.5147  -0.3759    0.2001749185465826E-01    0.1479648282389842E-02    0.1718187413042303E-04    0.4005488258876385E+00   -0.1373572632661907E+01   -0.7936733972489948E-06    0.1195658988484283E-09    0.8948265739494587E-11    0.1250791137330509E-11    0.1173539937102119E-08
 -0.5155  -0.3950    0.1276009073531662E-01    0.9240106573592385E-03    0.1408118306610141E-04    0.4170930815750274E+00   -0.8605857157384449E+00   -0.4950956914598436E-06    0.1008560873705378E-09    0.3903257925208514E-11    0.1229613633135784E-11    0.9718170972811135E-09
 -0.5162  -0.4122    0.5465737634835213E-02    0.5207961577238337E-03    0.1094534723281738E-04    0.4328919452288428E+00   -0.4880747810179886E+00   -0.2784936735055348E-06    0.8207651919223125E-10    0.6074663341792963E-12    0.1204474020521928E-11    0.7818401568521205E-09
 -0.5169  -0.4277   -0.1535215075008552E-02    0.2496401734220490E-03    0.7897489773320129E-05    0.4476148730391620E+00   -0.2373132321604791E+00   -0.1328537571245538E-06    0.6565295702920526E-10   -0.1255853060433409E-11    0.1144320749268957E-11    0.6071143362346154E-09
 -0.5174  -0.4411   -0.7975716906244880E-02    0.8659653364289201E-04    0.5026416477169464E-05    0.4609410149902783E+00   -0.8613216763595041E-01   -0.4539236009146043E-07    0.5263198904481570E-10   -0.2069004689797538E-11    0.1130619903255692E-11    0.4506729512146479E-09
 -0.5179  -0.4527   -0.1364568393423720E-01    0.6197026551375111E-05    0.2419440394935765E-05    0.4725876048159930E+00   -0.1093172584034683E-01   -0.2347541795202800E-08    0.4318496255040216E-10   -0.2218007028043090E-11    0.1093840296118032E-11    0.3155821671693704E-09
 -0.5183  -0.4622   -0.1838875876311973E-01   -0.1819267742363392E-04    0.3179523350662311E-06    0.4823316049497615E+00    0.1309226372257237E-01    0.1043324416707305E-07    0.3655791023637195E-10   -0.2033290202874127E-11    0.1102632742056020E-11    0.2028712271957833E-09
 -0.5186  -0.4696   -0.2210465414695523E-01   -0.1359715750799403E-04   -0.9573828586274865E-06    0.4900178171686259E+00    0.1077822721751164E-01    0.7670400380096189E-08    0.3178022255079238E-10   -0.1765004808973458E-11    0.1064204280254444E-11    0.1142302788817440E-09
 -0.5188  -0.4749   -0.2475375590730435E-01   -0.3684827871244078E-05   -0.1017921296105555E-05    0.4955523817504149E+00    0.3508997472255822E-02    0.1935934392080744E-08    0.2684895686853872E-10   -0.1496845399365232E-11    0.1120037656371364E-11    0.5080813341665907E-10
 -0.5189  -0.4781   -0.2634303798473285E-01   -0.8343777484829402E-07   -0.8373554317806120E-07    0.4988867203243624E+00    0.4779525891930116E-03    0.7386111302528961E-10    0.2166638949415572E-10   -0.7851894048144237E-12    0.7856632011637998E-12    0.1286373256721186E-10
 -0.5190  -0.4792   -0.2687545319991667E-01    0.0000000000000000E+00    0.0000000000000000E+00    0.5000000000000000E+00   -0.1475739609386386E-03    0.0000000000000000E+00    0.0000000000000000E+00    0.0000000000000000E+00    0.0000000000000000E+00    0.0000000000000000E+00
 -0.4749   0.5199    0.2329364220618973E-01    0.0000000000000000E+00    0.0000000000000000E+00   -0.5000000000000000E+00   -0.4488344131728995E-02    0.0000000000000000E+00    0.0000000000000000E+00    0.0000000000000000E+00    0.0000000000000000E+00    0.0000000000000000E+00
 -0.4749   0.5188    0.2382502153938660E-01    0.5255672472586609E-06   -0.3354744480688335E-05   -0.4962375012987476E+00   -0.1751018537656602E-02   -0.2003829645187677E-08    0.7728896507172567E-09    0.2933725853394853E-12    0.3454313658030062E-12   -0.8462627300309666E-11
 -0.4750   0.5156    0.2540529486447070E-01    0.1228933993214408E-05   -0.1227958938267477E-05   -0.4849676116984209E+00    0.5075711109721527E-02   -0.1308485536388710E-07    0.7734676939728791E-09    0.9523801018651579E-12    0.8323632581797025E-12   -0.3331604415089673E-10
 -0.4753   0.5103    0.2798138319689927E-01   -0.2490895236463329E-04    0.1873047687917847E-04   -0.4662517648562611E+00    0.1659294744542912E-01    0.2970381753367371E-07    0.7748998751694325E-09    0.1321665867026756E-11    0.1129289370349618E-11   -0.7478537927818607E-10
 -0.4756   0.5028    0.3142316500383471E-01   -0.1424306117000641E-03    0.4805562247286831E-04   -0.4402183435656474E+00    0.4310387861905865E-01    0.2818747121076604E-06    0.7772783840176434E-09    0.7951946393025544E-12    0.1432786181365664E-11   -0.1327754217336774E-09
 -0.4759   0.4933    0.3549672466676895E-01   -0.4071351643442296E-03    0.7279626829652948E-04   -0.4070910964528914E+00    0.9723583415540350E-01    0.8680492102307270E-06    0.7806852317382429E-09   -0.1247005970705928E-11    0.1756365886063094E-11   -0.2077299530306442E-09
 -0.4764   0.4818    0.3988414077500307E-01   -0.8214913649844062E-03    0.8409518086829412E-04   -0.3672130015334207E+00    0.1815211303096357E+00    0.1789395162092718E-05    0.7849308078511363E-09   -0.5312354722786239E-11    0.2042695873560874E-11   -0.2986672593269235E-09
 -0.4770   0.4683    0.4422549522359811E-01   -0.1324094399612193E-02    0.7870304610949064E-04   -0.3210687740283846E+00    0.2842968059623314E+00    0.2906729406014470E-05    0.7896189396783271E-09   -0.1155078116488184E-10    0.2245967301028884E-11   -0.4049885184154167E-09
 -0.4776   0.4529    0.4816038037872972E-01   -0.1802295447068639E-02    0.5735737308833760E-04   -0.2693280089682391E+00    0.3818597198268840E+00    0.3971338904459799E-05    0.7943369746687967E-09   -0.1971565966041311E-10    0.2333373078089451E-11   -0.5229053232080894E-09