 title="result"
 variables="x","y","P","u","v","t","omega","psi","RES1","RES2","RES3","RES4"
zone,j= 49,i= 49,f=point
 -0.3851   0.5930    0.2525479468300411E-01    0.0000000000000000E+00    0.0000000000000000E+00   -0.5000000000000000E+00    0.0000000000000000E+00    0.0000000000000000E+00    0.0000000000000000E+00    0.0000000000000000E+00    0.0000000000000000E+00    0.0000000000000000E+00
 -0.3853   0.5920    0.2577460426706718E-01    0.0000000000000000E+00    0.0000000000000000E+00   -0.4957191072325853E+00   -0.6221081986240961E-04    0.0000000000000000E+00    0.0000000000000000E+00    0.0000000000000000E+00    0.0000000000000000E+00    0.0000000000000000E+00
 -0.3860   0.5888    0.2730794928845173E-01    0.0000000000000000E+00    0.0000000000000000E+00   -0.4828967811160130E+00   -0.4235106705692154E-02    0.0000000000000000E+00    0.0000000000000000E+00    0.0000000000000000E+00    0.0000000000000000E+00    0.0000000000000000E+00
 -0.3871   0.5836    0.2979537432147700E-01    0.0000000000000000E+00    0.0000000000000000E+00   -0.4616061251246399E+00   -0.1608245457543338E-01    0.0000000000000000E+00    0.0000000000000000E+00    0.0000000000000000E+00    0.0000000000000000E+00    0.0000000000000000E+00
 -0.3887   0.5764    0.3312694993955512E-01    0.0000000000000000E+00    0.0000000000000000E+00   -0.4320088523013775E+00   -0.2994977019010047E-01    0.0000000000000000E+00    0.0000000000000000E+00    0.0000000000000000E+00    0.0000000000000000E+00    0.0000000000000000E+00
 -0.3906   0.5671    0.3710694229592441E-01    0.0000000000000000E+00    0.0000000000000000E+00   -0.3944128246763557E+00   -0.3704714593460257E-01    0.0000000000000000E+00    0.0000000000000000E+00    0.0000000000000000E+00    0.0000000000000000E+00    0.0000000000000000E+00
 -0.3930   0.5558    0.4146208984932062E-01    0.0000000000000000E+00    0.0000000000000000E+00   -0.3493461949267281E+00   -0.3199229103441935E-01    0.0000000000000000E+00    0.0000000000000000E+00    0.0000000000000000E+00    0.0000000000000000E+00    0.0000000000000000E+00
 -0.3958   0.5426    0.4586078958308424E-01    0.0000000000000000E+00    0.0000000000000000E+00   -0.2976419524787850E+00   -0.1506938408655393E-01    0.0000000000000000E+00    0.0000000000000000E+00    0.0000000000000000E+00    0.0000000000000000E+00    0.0000000000000000E+00
 -0.3990   0.5275    0.4993791565604529E-01    0.0000000000000000E+00    0.0000000000000000E+00   -0.2405253996577446E+00    0.7085476454558094E-02    0.0000000000000000E+00    0.0000000000000000E+00    0.0000000000000000E+00    0.0000000000000000E+00    0.0000000000000000E+00
 -0.4026   0.5106    0.5332527769898884E-01    0.0000000000000000E+00    0.0000000000000000E+00   -0.1796897110295229E+00    0.2162912282652573E-01    0.0000000000000000E+00    0.0000000000000000E+00    0.0000000000000000E+00    0.0000000000000000E+00    0.0000000000000000E+00
 -0.4066   0.4920    0.5568886990146162E-01    0.0000000000000000E+00    0.0000000000000000E+00   -0.1173293327600657E+00    0.1024218117463354E-01    0.0000000000000000E+00    0.0000000000000000E+00    0.0000000000000000E+00    0.0000000000000000E+00    0.0000000000000000E+00
 -0.4109   0.4717    0.5676965662396871E-01    0.0000000000000000E+00    0.0000000000000000E+00   -0.5608309037940012E-01   -0.4855456606955894E-01    0.0000000000000000E+00    0.0000000000000000E+00    0.0000000000000000E+00    0.0000000000000000E+00    0.0000000000000000E+00
 -0.4156   0.4498    0.5641807524034510E-01    0.0000000000000000E+00    0.0000000000000000E+00    0.1169170226379744E-02   -0.1753630249606615E+00    0.0000000000000000E+00    0.0000000000000000E+00    0.0000000000000000E+00    0.0000000000000000E+00    0.0000000000000000E+00
 -0.4205   0.4264    0.5461063518937462E-01    0.0000000000000000E+00    0.0000000000000000E+00    0.5169054365599108E-01   -0.3857926215008766E+00    0.0000000000000000E+00    0.0000000000000000E+00    0.0000000000000000E+00    0.0000000000000000E+00    0.0000000000000000E+00
 -0.4258   0.4017    0.5144407723404133E-01    0.0000000000000000E+00    0.0000000000000000E+00    0.9341066872262016E-01   -0.6889975100472572E+00    0.0000000000000000E+00    0.0000000000000000E+00    0.0000000000000000E+00    0.0000000000000000E+00    0.0000000000000000E+00
 -0.4313   0.3757    0.4711295963066078E-01    0.0000000000000000E+00    0.0000000000000000E+00    0.1254272464186237E+00   -0.1089713121705404E+01    0.0000000000000000E+00    0.0000000000000000E+00    0.0000000000000000E+00    0.0000000000000000E+00    0.0000000000000000E+00
 -0.4371   0.3485    0.4188142522844689E-01    0.0000000000000000E+00    0.0000000000000000E+00    0.1482389080025820E+00   -0.1591457938274076E+01    0.0000000000000000E+00    0.0000000000000000E+00    0.0000000000000000E+00    0.0000000000000000E+00    0.0000000000000000E+00
 -0.4431   0.3203    0.3605768789673208E-01    0.0000000000000000E+00    0.0000000000000000E+00    0.1635344481555596E+00   -0.2197524256407908E+01    0.0000000000000000E+00    0.0000000000000000E+00    0.0000000000000000E+00    0.0000000000000000E+00    0.0000000000000000E+00
 -0.4493   0.2911    0.2997611073384426E-01    0.0000000000000000E+00    0.0000000000000000E+00    0.1736035352159318E+00   -0.2908627041912184E+01    0.0000000000000000E+00    0.0000000000000000E+00    0.0000000000000000E+00    0.0000000000000000E+00    0.0000000000000000E+00
 -0.4557   0.2612    0.2398792451494632E-01    0.0000000000000000E+00    0.0000000000000000E+00    0.1806645123974571E+00   -0.3718802858636281E+01    0.0000000000000000E+00    0.0000000000000000E+00    0.0000000000000000E+00    0.0000000000000000E+00    0.0000000000000000E+00
 -0.4622   0.2305    0.1845617647479379E-01    0.0000000000000000E+00    0.0000000000000000E+00    0.1864195081247231E+00   -0.4612033741056770E+01    0.0000000000000000E+00    0.0000000000000000E+00    0.0000000000000000E+00    0.0000000000000000E+00    0.0000000000000000E+00
 -0.4688   0.1994    0.1374640824176611E-01    0.0000000000000000E+00    0.0000000000000000E+00    0.1919479885304397E+00   -0.5561199176503971E+01    0.0000000000000000E+00    0.0000000000000000E+00    0.0000000000000000E+00    0.0000000000000000E+00    0.0000000000000000E+00
 -0.4755   0.1678    0.1020683989402749E-01    0.0000000000000000E+00    0.0000000000000000E+00    0.1978361665819086E+00   -0.6529569048605218E+01    0.0000000000000000E+00    0.0000000000000000E+00    0.0000000000000000E+00    0.0000000000000000E+00    0.0000000000000000E+00
 -0.4823   0.1359    0.8138608072078656E-02    0.0000000000000000E+00    0.0000000000000000E+00    0.2043717628559998E+00   -0.7473918474661277E+01    0.0000000000000000E+00    0.0000000000000000E+00    0.0000000000000000E+00    0.0000000000000000E+00    0.0000000000000000E+00
 -0.4891   0.1040    0.7761931848603965E-02    0.0000000000000000E+00    0.0000000000000000E+00    0.2116953239280005E+00   -0.8347951114735002E+01    0.0000000000000000E+00    0.0000000000000000E+00    0.0000000000000000E+00    0.0000000000000000E+00    0.0000000000000000E+00
 -0.4959   0.0720    0.9184555554490782E-02    0.0000000000000000E+00    0.0000000000000000E+00    0.2198840746012813E+00   -0.9105067608753389E+01    0.0000000000000000E+00    0.0000000000000000E+00    0.0000000000000000E+00    0.0000000000000000E+00    0.0000000000000000E+00
 -0.5026   0.0401    0.1237634433851751E-01    0.0000000000000000E+00    0.0000000000000000E+00    0.2289874924222181E+00   -0.9700322296851615E+01    0.0000000000000000E+00    0.0000000000000000E+00    0.0000000000000000E+00    0.0000000000000000E+00    0.0000000000000000E+00
 -0.5094   0.0085    0.1715188549737715E-01    0.0000000000000000E+00    0.0000000000000000E+00    0.2390383137186659E+00   -0.1009216570939996E+02    0.0000000000000000E+00    0.0000000000000000E+00    0.0000000000000000E+00    0.0000000000000000E+00    0.0000000000000000E+00
 -0.5160  -0.0226    0.2316362519698410E-01    0.0000000000000000E+00    0.0000000000000000E+00    0.2500535290479950E+00   -0.1024492722177597E+02    0.0000000000000000E+00    0.0000000000000000E+00    0.0000000000000000E+00    0.0000000000000000E+00    0.0000000000000000E+00
 -0.5225  -0.0533    0.2991067867138174E-01    0.0000000000000000E+00    0.0000000000000000E+00    0.2620319742577916E+00   -0.1013275390589119E+02    0.0000000000000000E+00    0.0000000000000000E+00    0.0000000000000000E+00    0.0000000000000000E+00    0.0000000000000000E+00
 -0.5289  -0.0832    0.3677054917542884E-01    0.0000000000000000E+00    0.0000000000000000E+00    0.2749512112842704E+00   -0.9744945722874810E+01    0.0000000000000000E+00    0.0000000000000000E+00    0.0000000000000000E+00    0.0000000000000000E+00    0.0000000000000000E+00
 -0.5351  -0.1124    0.4305910534596596E-01    0.0000000000000000E+00    0.0000000000000000E+00    0.2887649607008879E+00   -0.9091519566715393E+01    0.0000000000000000E+00    0.0000000000000000E+00    0.0000000000000000E+00    0.0000000000000000E+00    0.0000000000000000E+00
 -0.5411  -0.1406    0.4811655427543033E-01    0.0000000000000000E+00    0.0000000000000000E+00    0.3034017861768342E+00   -0.8206865947957292E+01    0.0000000000000000E+00    0.0000000000000000E+00    0.0000000000000000E+00    0.0000000000000000E+00    0.0000000000000000E+00
 -0.5468  -0.1678    0.5140509648425669E-01    0.0000000000000000E+00    0.0000000000000000E+00    0.3187652219983475E+00   -0.7149142981089506E+01    0.0000000000000000E+00    0.0000000000000000E+00    0.0000000000000000E+00    0.0000000000000000E+00    0.0000000000000000E+00
 -0.5524  -0.1938    0.5259355252283728E-01    0.0000000000000000E+00    0.0000000000000000E+00    0.3347348409906184E+00   -0.5994073796857295E+01    0.0000000000000000E+00    0.0000000000000000E+00    0.0000000000000000E+00    0.0000000000000000E+00    0.0000000000000000E+00
 -0.5576  -0.2185    0.5160291613020457E-01    0.0000000000000000E+00    0.0000000000000000E+00    0.3511670325335172E+00   -0.4823927604534952E+01    0.0000000000000000E+00    0.0000000000000000E+00    0.0000000000000000E+00    0.0000000000000000E+00    0.0000000000000000E+00
 -0.5626  -0.2419    0.4859845907580965E-01    0.0000000000000000E+00    0.0000000000000000E+00    0.3678939415802487E+00   -0.3714659697075513E+01    0.0000000000000000E+00    0.0000000000000000E+00    0.0000000000000000E+00    0.0000000000000000E+00    0.0000000000000000E+00
 -0.5672  -0.2637    0.4393368070084353E-01    0.0000000000000000E+00    0.0000000000000000E+00    0.3847196509172655E+00   -0.2725157036362950E+01    0.0000000000000000E+00    0.0000000000000000E+00    0.0000000000000000E+00    0.0000000000000000E+00    0.0000000000000000E+00
 -0.5715  -0.2841    0.3806838732950830E-01    0.0000000000000000E+00    0.0000000000000000E+00    0.4014145161282680E+00   -0.1891580788596067E+01    0.0000000000000000E+00    0.0000000000000000E+00    0.0000000000000000E+00    0.0000000000000000E+00    0.0000000000000000E+00
 -0.5755  -0.3027    0.3148823965746181E-01    0.0000000000000000E+00    0.0000000000000000E+00    0.4177110471508085E+00   -0.1227574613219755E+01    0.0000000000000000E+00    0.0000000000000000E+00    0.0000000000000000E+00    0.0000000000000000E+00    0.0000000000000000E+00
 -0.5791  -0.3196    0.2464579033420746E-01    0.0000000000000000E+00    0.0000000000000000E+00    0.4333063964048011E+00   -0.7288267046938254E+00    0.0000000000000000E+00    0.0000000000000000E+00    0.0000000000000000E+00    0.0000000000000000E+00    0.0000000000000000E+00
 -0.5823  -0.3347    0.1792976260010008E-01    0.0000000000000000E+00    0.0000000000000000E+00    0.4478756148914406E+00   -0.3793679963914732E+00    0.0000000000000000E+00    0.0000000000000000E+00    0.0000000000000000E+00    0.0000000000000000E+00    0.0000000000000000E+00
 -0.5851  -0.3479    0.1165769764854123E-01    0.0000000000000000E+00    0.0000000000000000E+00    0.4610957657357542E+00   -0.1569790848107294E+00    0.0000000000000000E+00    0.0000000000000000E+00    0.0000000000000000E+00    0.0000000000000000E+00    0.0000000000000000E+00
 -0.5875  -0.3592    0.6080930569899538E-02    0.0000000000000000E+00    0.0000000000000000E+00    0.4726753382122446E+00   -0.3627306802034317E-01    0.0000000000000000E+00    0.0000000000000000E+00    0.0000000000000000E+00    0.0000000000000000E+00    0.0000000000000000E+00
 -0.5895  -0.3685    0.1389791593365332E-02    0.0000000000000000E+00    0.0000000000000000E+00    0.4823794832579833E+00    0.1074070141732694E-01    0.0000000000000000E+00    0.0000000000000000E+00    0.0000000000000000E+00    0.0000000000000000E+00    0.0000000000000000E+00
 -0.5910  -0.3757   -0.2288440345645942E-02    0.0000000000000000E+00    0.0000000000000000E+00    0.4900422829873069E+00    0.1433457257636955E-01    0.0000000000000000E+00    0.0000000000000000E+00    0.0000000000000000E+00    0.0000000000000000E+00    0.0000000000000000E+00
 -0.5921  -0.3809   -0.4897798200347061E-02    0.0000000000000000E+00    0.0000000000000000E+00    0.4955628287411868E+00    0.4364247065269358E-02    0.0000000000000000E+00    0.0000000000000000E+00    0.0000000000000000E+00    0.0000000000000000E+00    0.0000000000000000E+00
 -0.5928  -0.3841   -0.6453486447156202E-02    0.0000000000000000E+00    0.0000000000000000E+00    0.4988893084495367E+00   -0.1067547983183769E-03    0.0000000000000000E+00    0.0000000000000000E+00    0.0000000000000000E+00    0.0000000000000000E+00    0.0000000000000000E+00
 -0.5930  -0.3851   -0.6973938330947269E-02    0.0000000000000000E+00    0.0000000000000000E+00    0.5000000000000000E+00    0.0000000000000000E+00    0.0000000000000000E+00    0.0000000000000000E+00    0.0000000000000000E+00    0.0000000000000000E+00    0.0000000000000000E+00
 -0.3841   0.5928    0.2536760078485770E-01    0.0000000000000000E+00    0.0000000000000000E+00   -0.5000000000000000E+00   -0.6238026130484892E-04    0.0000000000000000E+00    0.0000000000000000E+00    0.0000000000000000E+00    0.0000000000000000E+00    0.0000000000000000E+00
 -0.3843   0.5918    0.2588693534910131E-01    0.2025275360824801E-06   -0.2026210203237419E-06   -0.4957190060055426E+00   -0.5495042938401089E-03   -0.1367633761785575E-09    0.9468010451173237E-09    0.3204419694001481E-12    0.3419120455511182E-12   -0.8407068661023254E-11
 -0.3850   0.5886    0.2741981645845065E-01    0.4241625060895975E-05   -0.1058052871403576E-05   -0.4828963750310860E+00   -0.3837703643482518E-02   -0.2287137820946628E-08    0.9492009110136090E-09    0.6651595507028984E-12    0.4775116933808388E-12   -0.3563060523709138E-10
 -0.3861   0.5834    0.2990388392690783E-01    0.1554117846765335E-04   -0.1211669379490776E-05   -0.4616052065723394E+00   -0.1296982995758192E-01   -0.8643846139284851E-08    0.9520020605169321E-09    0.6593744647509503E-12    0.4930006056169667E-12   -0.7953265563492851E-10
 -0.3876   0.5761    0.3322681279437655E-01    0.2920643229586215E-04   -0.7596595364723354E-06   -0.4320072149510306E+00   -0.2465986874210994E-01   -0.1611303237164895E-07    0.9550489787034377E-09    0.3164499912111651E-12    0.5175590858663703E-12   -0.1415003548360660E-09
 -0.3896   0.5669    0.3719516735457093E-01    0.3647086221544671E-04   -0.8641827094565000E-07   -0.3944102719259188E+00   -0.3111799448421059E-01   -0.2009494471416842E-07    0.9584011783519454E-09   -0.5110096373828199E-12    0.5567594454046476E-12   -0.2206880719834992E-09
 -0.3920   0.5556    0.4153743981157104E-01    0.3163376935025971E-04    0.5006395993706199E-06   -0.3493425417188065E+00   -0.2715617161495235E-01   -0.1738054919387865E-07    0.9614860052879412E-09   -0.1833127399875067E-11    0.5541851699764067E-12   -0.3160034699190017E-09
 -0.3948   0.5424    0.4592321239072126E-01    0.1490958181458387E-04    0.7947830992762842E-06   -0.2976370275877902E+00   -0.1283524988861877E-01   -0.8200861542641717E-08    0.9639207158157470E-09   -0.3536041251472888E-11    0.5314542209089446E-12   -0.4241903564516925E-09
 -0.3980   0.5273    0.4998817888641623E-01   -0.6782508551961831E-05    0.6856838853112008E-06   -0.2405190618862300E+00    0.5522586367145894E-02    0.3784364495781050E-08    0.9654839959200717E-09   -0.5426886370840656E-11    0.5421605005218044E-12   -0.5400651870157702E-09
 -0.4016   0.5104    0.5336486230365095E-01   -0.1992890286646049E-04    0.1079218671096904E-06   -0.1796818886328218E+00    0.1553858924568056E-01    0.1124020859577025E-07    0.9662911365699613E-09   -0.7304667287710842E-11    0.5471459805952809E-12   -0.6526804652295937E-09
 -0.4056   0.4917    0.5571978594463616E-01   -0.5216196647978890E-05   -0.9481458239307255E-06   -0.1173200856263122E+00   -0.5664346763115017E-03    0.3822797887973875E-08    0.9665239214442373E-09   -0.9015486274188689E-11    0.5071134484557760E-12   -0.7444159316749577E-09
 -0.4099   0.4714    0.5679418661661440E-01    0.6003313808561732E-04   -0.2416401746251958E-05   -0.5607268292736841E-01   -0.6366548716846174E-01   -0.3070047962614455E-07    0.9661979948755173E-09   -0.1047637671058865E-10    0.4803744207970695E-12   -0.7902125759295942E-09
 -0.4145   0.4496    0.5643840722020622E-01    0.1976186167241451E-03   -0.4148600810261189E-05    0.1180213762614440E-02   -0.1938932435873308E+00   -0.1040134112292260E-06    0.9645993934159769E-09   -0.1167199670248920E-10    0.4260862496163753E-12   -0.7577179161888381E-09
 -0.4195   0.4262    0.5462871740360389E-01    0.4241306044958147E-03   -0.5970652100312773E-05    0.5170145030134445E-01   -0.4066276186877487E+00   -0.2250424404178722E-06    0.9599819255495801E-09   -0.1262008553215566E-10    0.3731112641069956E-12   -0.6129531882059780E-09
 -0.4247   0.4015    0.5146170689096122E-01    0.7493665140990276E-03   -0.7759849425857810E-05    0.9342054401223929E-01   -0.7110266439546054E+00   -0.3990125731377583E-06    0.9493785931014020E-09   -0.1333148869075984E-10    0.3144498550433639E-12   -0.3306148688153598E-09
 -0.4303   0.3754    0.4713199331784506E-01    0.1178405482529277E-02   -0.9486950308299417E-05    0.1254353130719448E+00   -0.1111840550141920E+01   -0.6286569997921737E-06    0.9289974449433469E-09   -0.1379614478214108E-10    0.2573358193203035E-12    0.9214882329411367E-10
 -0.4360   0.3483    0.4190372310642541E-01    0.1714919330862788E-02   -0.1117720069782953E-04    0.1482447536849815E+00   -0.1612415211088575E+01   -0.9159452272028181E-06    0.8949537499969296E-09   -0.1396548154897204E-10    0.1530511828384817E-12    0.6271340183272578E-09
 -0.4420   0.3200    0.3608477282807272E-01    0.2362190655346584E-02   -0.1283819117517168E-04    0.1635381326885704E+00   -0.2215587506507494E+01   -0.1262687379005493E-05    0.8444185697897844E-09   -0.1375603797537650E-10    0.4905104100672020E-13    0.1218731768282133E-08
 -0.4482   0.2909    0.3000867977768685E-01    0.3120635844326875E-02   -0.1440735706697196E-04    0.1736054882003085E+00   -0.2921421553427320E+01   -0.1669160852775107E-05    0.7763787286674262E-09   -0.1305717339805668E-10   -0.5173639294753229E-13    0.1799340015526396E-08
 -0.4546   0.2609    0.2402554086173586E-01    0.3983502884306819E-02   -0.1575420127245348E-04    0.1806653008053432E+00   -0.3723264256778809E+01   -0.2131822528649147E-05    0.6919234629698678E-09   -0.1167681749902894E-10   -0.1533634330641576E-12    0.2311137677936392E-08
 -0.4611   0.2303    0.1849720742758397E-01    0.4933355217755195E-02   -0.1671385503187696E-04    0.1864196259748485E+00   -0.4604558719289613E+01   -0.2641387202115818E-05    0.5940656716552084E-09   -0.9383084587089030E-11   -0.2747108096556872E-12    0.2720441214529648E-08
 -0.4677   0.1991    0.1378823244405486E-01    0.5941033266660121E-02   -0.1713324836286052E-04    0.1919477629110138E+00   -0.5537948928435130E+01   -0.3182270900116263E-05    0.4872793418764232E-09   -0.5923914137007102E-11   -0.3621269950571104E-12    0.3017926308163110E-08
 -0.4745   0.1676    0.1024614983052606E-01    0.6967301762465770E-02   -0.1689990561903033E-04    0.1978357696367460E+00   -0.6486865084095481E+01   -0.3733457021368205E-05    0.3771242138017605E-09   -0.1136729599338082E-11   -0.4601180547680883E-12    0.3211920661296691E-08
 -0.4812   0.1357    0.8171737171197334E-02    0.7966193550565256E-02   -0.1595236269586673E-04    0.2043712672717648E+00   -0.7408656748361135E+01   -0.4270284437444311E-05    0.2698465687012153E-09    0.4974604062013555E-11   -0.5048461648726743E-12    0.3319302721571660E-08
 -0.4880   0.1037    0.7785066803186353E-02    0.8888653738718780E-02   -0.1426727535536299E-04    0.2116947531152238E+00   -0.8257973980187426E+01   -0.4766408410269728E-05    0.1718137992989810E-09    0.1216954315097496E-10   -0.5172945405362839E-12    0.3357222526020887E-08
 -0.4948   0.0717    0.9193869812609069E-02    0.9685472619090934E-02   -0.1184380765063788E-04    0.2198834323750640E+00   -0.8989483704832063E+01   -0.5195362856689032E-05    0.8886316682499285E-10    0.1997940701770062E-10   -0.5107372857970915E-12    0.3340219082229035E-08
 -0.5016   0.0399    0.1236804156471654E-01    0.1030935363540852E-01   -0.8690432392532396E-05    0.2289867766034492E+00   -0.9559768910696009E+01   -0.5531691719808793E-05    0.2554369910034993E-10    0.2775790708398063E-10   -0.4424863253582600E-12    0.3280800694484276E-08
 -0.5083   0.0083    0.1712229523703284E-01    0.1071675450771922E-01   -0.4832437138523278E-05    0.2390375214846009E+00   -0.9929035677426569E+01   -0.5751912547524359E-05   -0.1553253532737831E-10    0.3478634047482387E-10   -0.3187311525820746E-12    0.3187310361821294E-08
 -0.5149  -0.0228    0.2310938335025459E-01    0.1087050442615233E-01   -0.3328458210431530E-06    0.2500526589538176E+00   -0.1006350819120523E+02   -0.5835957882473549E-05   -0.3420985749454791E-10    0.4035144440805993E-10   -0.1631605007351711E-12    0.3066885596175739E-08
 -0.5214  -0.0535    0.2982910869821487E-01    0.1074393675711413E-01    0.4670548629676482E-05    0.2620310269548718E+00   -0.9939225129880231E+01   -0.5769361832458710E-05   -0.3303085756301005E-10    0.4376521367532860E-10    0.2424102585329990E-13    0.2924832737116745E-08
 -0.5278  -0.0834    0.3666016442150039E-01    0.1032645650206028E-01    0.9936581675012431E-05    0.2749501894758773E+00   -0.9547088682951149E+01   -0.5546314314400449E-05   -0.1709942951122478E-10    0.4461619962370378E-10    0.2233838114484854E-12    0.2764925597503742E-08
 -0.5340  -0.1126    0.4292018650449265E-01    0.9629304533414429E-02    0.1510940346582065E-04    0.2887638683724988E+00   -0.8898089005627330E+01   -0.5172723582694907E-05    0.6623774445602137E-11    0.4270717113286082E-10    0.4352490590164848E-12    0.2590649656603050E-08
 -0.5400  -0.1408    0.4795153797325585E-01    0.8689286102964320E-02    0.1975245248886926E-04    0.3034006271635062E+00   -0.8026589788648103E+01   -0.4668311896705022E-05    0.3049730606941026E-10    0.3822370198136582E-10    0.6306483113505124E-12    0.2404419500307009E-08
 -0.5458  -0.1680    0.5121863774157967E-01    0.7568023526076059E-02    0.2341936372332930E-04    0.3187639982624218E+00   -0.6989564591699760E+01   -0.4066155267578772E-05    0.4773537121138816E-10    0.3170536055918660E-10    0.7882999808472846E-12    0.2208710618914478E-08
 -0.5513  -0.1940    0.5239205779334047E-01    0.6345378757340313E-02    0.2575703536184230E-04    0.3347335514269262E+00   -0.5860480035116844E+01   -0.3409241756452854E-05    0.5377429057595862E-10    0.2403105492376767E-10    0.9419826030310219E-12    0.2005787579431595E-08
 -0.5566  -0.2187    0.5139368970798164E-01    0.5107889369998884E-02    0.2658978131541471E-04    0.3511656734446682E+00   -0.4718746958732495E+01   -0.2744135429773421E-05    0.4712640000459345E-10    0.1618521983104415E-10    0.1004932248527268E-11    0.1798054040727526E-08
 -0.5615  -0.2421    0.4838861080871905E-01    0.3935333776142851E-02    0.2596279174673591E-04    0.3678925098671674E+00   -0.3637439304457991E+01   -0.2113847880533588E-05    0.2928142450731031E-10    0.9076378537642427E-11    0.1053518383642427E-11    0.1587875520306370E-08
 -0.5662  -0.2640    0.4372922559194868E-01    0.2889522389480328E-02    0.2410910849875365E-04    0.3847181502221002E+00   -0.2673158477379590E+01   -0.1551641925347822E-05    0.3893801947540965E-11    0.3344741150712593E-11    0.1082064993163101E-11    0.1378192714465709E-08
 -0.5705  -0.2843    0.3787368155394429E-01    0.2008416942514681E-02    0.2137520598574747E-04    0.4014129646560033E+00   -0.1860645555086973E+01   -0.1078019944952787E-05   -0.2467060583599689E-10   -0.6881301084504798E-12    0.1064412447071561E-11    0.1172369801932804E-08
 -0.5745  -0.3029    0.3130596731868471E-01    0.1306355780701914E-02    0.1811515025263240E-04    0.4177094841775535E+00   -0.1213065563748034E+01   -0.7006460681257615E-06   -0.5234266492459838E-10   -0.3053148012188700E-11    0.1018407580488656E-11    0.9736649767694283E-09
 -0.5781  -0.3198    0.2447725745952436E-01    0.7788159086199400E-03    0.1462125674345149E-04    0.4333048835701885E+00   -0.7262547298430300E+00   -0.4171534663404118E-06   -0.7629713874579558E-10   -0.4026336555829069E-11    0.9951900414861825E-12    0.7861130479208667E-09
 -0.5813  -0.3349    0.1777543963130197E-01    0.4089628125197038E-03    0.1107872444244684E-04    0.4478742292781491E+00   -0.3847669516857725E+00   -0.2183985813955352E-06   -0.9504596415466082E-10   -0.4008226042739871E-11    0.9571232695293475E-12    0.6122270711228506E-09
 -0.5841  -0.3481    0.1151753881322080E-01    0.1732779909190316E-03    0.7604121848011858E-05    0.4610945846677270E+00   -0.1668406497953120E+00   -0.9185234989754183E-07   -0.1084368133480451E-09   -0.3429218714545712E-11    0.9511627596658911E-12    0.4560495939220921E-09
 -0.5865  -0.3594    0.5954402074585768E-02    0.4474137912448254E-04    0.4304070366414011E-05    0.4726744196551279E+00   -0.4744270166915104E-01   -0.2288724566093450E-07   -0.1171287702245172E-09   -0.2664490156290000E-11    0.9313452786763321E-12    0.3195982532441799E-09
 -0.5884  -0.3687    0.1275190701619490E-02   -0.6484512182830578E-05    0.1439185925401923E-05    0.4823788488362565E+00    0.1278437959110244E-02    0.4314201088809328E-08   -0.1225631532028593E-09   -0.1995160980872157E-11    0.9621478960775143E-12    0.2060228905878536E-09
 -0.5900  -0.3759   -0.2395168822343179E-02   -0.1256424024287782E-04   -0.5574247830193931E-06    0.4900419109888182E+00    0.8997366217145324E-02    0.7268873346257893E-08   -0.1262393681342872E-09   -0.1556919523859612E-11    0.9181852327067030E-12    0.1162483945910120E-09
 -0.5911  -0.3812   -0.5004114317342882E-02   -0.4286013884032178E-05   -0.1101628010711939E-05    0.4955626608062567E+00    0.3733491654364316E-02    0.2302541918681034E-08   -0.1302820143433969E-09   -0.1303144224473751E-11    0.9939766024147367E-12    0.5188122631158421E-10
 -0.5918  -0.3843   -0.6562116077545206E-02   -0.1390106372297480E-06   -0.1392342755665205E-06    0.4988892663292733E+00    0.5845219267412593E-03    0.1195084333890618E-09   -0.1347818031228326E-09   -0.6651813431665654E-12    0.6931291478273760E-12    0.1293082893365216E-10
 -0.5920  -0.3853   -0.7082692161177457E-02    0.0000000000000000E+00    0.0000000000000000E+00    0.5000000000000000E+00   -0.1062202042282817E-03    0.0000000000000000E+00    0.0000000000000000E+00    0.0000000000000000E+00    0.0000000000000000E+00    0.0000000000000000E+00
 -0.3809   0.5921    0.2570257552617563E-01    0.0000000000000000E+00    0.0000000000000000E+00   -0.5000000000000000E+00   -0.4234640861767319E-02    0.0000000000000000E+00    0.0000000000000000E+00    0.0000000000000000E+00    0.0000000000000000E+00    0.0000000000000000E+00
 -0.3812   0.5911    0.2621952132748945E-01    0.1057496614255040E-05   -0.4240972102022359E-05   -0.4957174991832327E+00   -0.3836878739766503E-02   -0.2286791464449124E-08    0.9489433418739812E-09    0.5073674499197350E-12    0.6102373380917347E-12   -0.8855896051207512E-11
 -0.3818   0.5880    0.2774812155146684E-01    0.1279108574561972E-04   -0.1279371557531797E-04   -0.4828903407753428E+00   -0.3411642318097533E-02   -0.3127085721517161E-07    0.9499219397191005E-09    0.1472644488992314E-11    0.1522112947835441E-11   -0.3554096123306594E-10
 -0.3829   0.5827    0.3022224696909845E-01    0.4536698603937361E-04   -0.1587738603403336E-04   -0.4615915903450616E+00   -0.5836050080793033E-02   -0.1122655914366625E-06    0.9519721113834811E-09    0.1808398049363280E-11    0.2028066083126223E-11   -0.7961619818280807E-10
 -0.3845   0.5755    0.3352303469270112E-01    0.8764733454719932E-04   -0.1064346407883517E-04   -0.4319829542743107E+00   -0.1156180421977478E-01   -0.2139257143951965E-06    0.9547199116347049E-09    0.6925154893977492E-12    0.2425659499649679E-11   -0.1413752864776185E-09
 -0.3865   0.5662    0.3745976084606401E-01    0.1124617244932682E-03   -0.1509464275210284E-05   -0.3943723729184079E+00   -0.1610359274401561E-01   -0.2710698859622222E-06    0.9578237524952501E-09   -0.2257640255298732E-11    0.2722747808464598E-11   -0.2206501197032917E-09
 -0.3888   0.5549    0.4176563091012207E-01    0.9916989540273175E-04    0.6692483926713021E-05   -0.3492881301270534E+00   -0.1508642322789044E-01   -0.2370393136445158E-06    0.9608239087167958E-09   -0.7107547189688646E-11    0.2897311513969103E-11   -0.3157788960872487E-09
 -0.3917   0.5417    0.4611392117537012E-01    0.4797853319758817E-04    0.1070691839517336E-04   -0.2975634409837666E+00   -0.8200842930985726E-02   -0.1129512784770214E-06    0.9632840436771262E-09   -0.1343478280013688E-10    0.2939335407015076E-11   -0.4243136675352588E-09
 -0.3949   0.5266    0.5014305436551914E-01   -0.1548325557738655E-04    0.8640421453619301E-05   -0.2404241569977809E+00   -0.7974412569918074E-03    0.4464250655901592E-07    0.9649836246912458E-09   -0.2053636254106816E-10    0.2845132983375631E-11   -0.5401887548384110E-09