 title="result"
 variables="x","y","P","u","v","t","omega","psi","RES1","RES2","RES3","RES4"
zone,j= 49,i= 49,f=point
 -0.4450   0.5495    0.2410916476044057E-01    0.0000000000000000E+00    0.0000000000000000E+00   -0.5000000000000000E+00    0.0000000000000000E+00    0.0000000000000000E+00    0.0000000000000000E+00    0.0000000000000000E+00    0.0000000000000000E+00    0.0000000000000000E+00
 -0.4451   0.5485    0.2463724321137141E-01    0.0000000000000000E+00    0.0000000000000000E+00   -0.4960291452445181E+00   -0.2341796931570408E-03    0.0000000000000000E+00    0.0000000000000000E+00    0.0000000000000000E+00    0.0000000000000000E+00    0.0000000000000000E+00
 -0.4454   0.5453    0.2620672990663509E-01    0.0000000000000000E+00    0.0000000000000000E+00   -0.4841352528870136E+00   -0.4309877288928677E-02    0.0000000000000000E+00    0.0000000000000000E+00    0.0000000000000000E+00    0.0000000000000000E+00    0.0000000000000000E+00
 -0.4460   0.5400    0.2877064296187167E-01    0.0000000000000000E+00    0.0000000000000000E+00   -0.4643841151352800E+00   -0.7512282850059676E-02    0.0000000000000000E+00    0.0000000000000000E+00    0.0000000000000000E+00    0.0000000000000000E+00    0.0000000000000000E+00
 -0.4468   0.5326    0.3220188519035599E-01    0.0000000000000000E+00    0.0000000000000000E+00   -0.4369162457807506E+00    0.5621585565749482E-02    0.0000000000000000E+00    0.0000000000000000E+00    0.0000000000000000E+00    0.0000000000000000E+00    0.0000000000000000E+00
 -0.4478   0.5231    0.3626635189262732E-01    0.0000000000000000E+00    0.0000000000000000E+00   -0.4019858411324932E+00    0.4692165328857612E-01    0.0000000000000000E+00    0.0000000000000000E+00    0.0000000000000000E+00    0.0000000000000000E+00    0.0000000000000000E+00
 -0.4490   0.5117    0.4065403332274076E-01    0.0000000000000000E+00    0.0000000000000000E+00   -0.3600031735173813E+00    0.1170262788812478E+00    0.0000000000000000E+00    0.0000000000000000E+00    0.0000000000000000E+00    0.0000000000000000E+00    0.0000000000000000E+00
 -0.4504   0.4982    0.4501212336068441E-01    0.0000000000000000E+00    0.0000000000000000E+00   -0.3115809960813481E+00    0.2046678968186989E+00    0.0000000000000000E+00    0.0000000000000000E+00    0.0000000000000000E+00    0.0000000000000000E+00    0.0000000000000000E+00
 -0.4520   0.4829    0.4897955290650016E-01    0.0000000000000000E+00    0.0000000000000000E+00   -0.2575977019551938E+00    0.2890217425353984E+00    0.0000000000000000E+00    0.0000000000000000E+00    0.0000000000000000E+00    0.0000000000000000E+00    0.0000000000000000E+00
 -0.4538   0.4657    0.5221770222554652E-01    0.0000000000000000E+00    0.0000000000000000E+00   -0.1992908881417917E+00    0.3440262143986537E+00    0.0000000000000000E+00    0.0000000000000000E+00    0.0000000000000000E+00    0.0000000000000000E+00    0.0000000000000000E+00
 -0.4558   0.4468    0.5443821514835873E-01    0.0000000000000000E+00    0.0000000000000000E+00   -0.1383735089536873E+00    0.3435513224488871E+00    0.0000000000000000E+00    0.0000000000000000E+00    0.0000000000000000E+00    0.0000000000000000E+00    0.0000000000000000E+00
 -0.4580   0.4261    0.5542448487993713E-01    0.0000000000000000E+00    0.0000000000000000E+00   -0.7712085095970367E-01    0.2665578270010665E+00    0.0000000000000000E+00    0.0000000000000000E+00    0.0000000000000000E+00    0.0000000000000000E+00    0.0000000000000000E+00
 -0.4603   0.4039    0.5504679716331620E-01    0.0000000000000000E+00    0.0000000000000000E+00   -0.1832628971953414E-01    0.1004778445826865E+00    0.0000000000000000E+00    0.0000000000000000E+00    0.0000000000000000E+00    0.0000000000000000E+00    0.0000000000000000E+00
 -0.4628   0.3801    0.5327133163350857E-01    0.0000000000000000E+00    0.0000000000000000E+00    0.3499130863528202E-01   -0.1587420109985682E+00    0.0000000000000000E+00    0.0000000000000000E+00    0.0000000000000000E+00    0.0000000000000000E+00    0.0000000000000000E+00
 -0.4654   0.3550    0.5016493252672154E-01    0.0000000000000000E+00    0.0000000000000000E+00    0.8016543998020324E-01   -0.5101286198864813E+00    0.0000000000000000E+00    0.0000000000000000E+00    0.0000000000000000E+00    0.0000000000000000E+00    0.0000000000000000E+00
 -0.4682   0.3285    0.4589283148827093E-01    0.0000000000000000E+00    0.0000000000000000E+00    0.1155892099541254E+00   -0.9524500795129092E+00    0.0000000000000000E+00    0.0000000000000000E+00    0.0000000000000000E+00    0.0000000000000000E+00    0.0000000000000000E+00
 -0.4711   0.3009    0.4070513892722182E-01    0.0000000000000000E+00    0.0000000000000000E+00    0.1412060289612229E+00   -0.1487137710240956E+01    0.0000000000000000E+00    0.0000000000000000E+00    0.0000000000000000E+00    0.0000000000000000E+00    0.0000000000000000E+00
 -0.4741   0.2722    0.3491247067566895E-01    0.0000000000000000E+00    0.0000000000000000E+00    0.1584615648666820E+00   -0.2117572711348354E+01    0.0000000000000000E+00    0.0000000000000000E+00    0.0000000000000000E+00    0.0000000000000000E+00    0.0000000000000000E+00
 -0.4773   0.2426    0.2886060579816751E-01    0.0000000000000000E+00    0.0000000000000000E+00    0.1697033005828554E+00   -0.2845304209215709E+01    0.0000000000000000E+00    0.0000000000000000E+00    0.0000000000000000E+00    0.0000000000000000E+00    0.0000000000000000E+00
 -0.4805   0.2121    0.2291346240660492E-01    0.0000000000000000E+00    0.0000000000000000E+00    0.1773715582696087E+00   -0.3665100233108274E+01    0.0000000000000000E+00    0.0000000000000000E+00    0.0000000000000000E+00    0.0000000000000000E+00    0.0000000000000000E+00
 -0.4837   0.1810    0.1744374250216530E-01    0.0000000000000000E+00    0.0000000000000000E+00    0.1834067812638220E+00   -0.4561050957071107E+01    0.0000000000000000E+00    0.0000000000000000E+00    0.0000000000000000E+00    0.0000000000000000E+00    0.0000000000000000E+00
 -0.4871   0.1493    0.1282141688455055E-01    0.0000000000000000E+00    0.0000000000000000E+00    0.1890621334588964E+00   -0.5505282022943098E+01    0.0000000000000000E+00    0.0000000000000000E+00    0.0000000000000000E+00    0.0000000000000000E+00    0.0000000000000000E+00
 -0.4904   0.1172    0.9392211600280521E-02    0.0000000000000000E+00    0.0000000000000000E+00    0.1950220800152516E+00   -0.6459564637441837E+01    0.0000000000000000E+00    0.0000000000000000E+00    0.0000000000000000E+00    0.0000000000000000E+00    0.0000000000000000E+00
 -0.4938   0.0848    0.7445896843450621E-02    0.0000000000000000E+00    0.0000000000000000E+00    0.2016200187627052E+00   -0.7378793539899108E+01    0.0000000000000000E+00    0.0000000000000000E+00    0.0000000000000000E+00    0.0000000000000000E+00    0.0000000000000000E+00
 -0.4973   0.0523    0.7180725444125936E-02    0.0000000000000000E+00    0.0000000000000000E+00    0.2090147183714325E+00   -0.8214883558076044E+01    0.0000000000000000E+00    0.0000000000000000E+00    0.0000000000000000E+00    0.0000000000000000E+00    0.0000000000000000E+00
 -0.5007   0.0197    0.8670989166815805E-02    0.0000000000000000E+00    0.0000000000000000E+00    0.2172898857693403E+00   -0.8920050598005442E+01    0.0000000000000000E+00    0.0000000000000000E+00    0.0000000000000000E+00    0.0000000000000000E+00    0.0000000000000000E+00
 -0.5041  -0.0126    0.1184255242454349E-01    0.0000000000000000E+00    0.0000000000000000E+00    0.2264969574341557E+00   -0.9449347119557174E+01    0.0000000000000000E+00    0.0000000000000000E+00    0.0000000000000000E+00    0.0000000000000000E+00    0.0000000000000000E+00
 -0.5075  -0.0447    0.1645908004510157E-01    0.0000000000000000E+00    0.0000000000000000E+00    0.2366687212914681E+00   -0.9763034792251911E+01    0.0000000000000000E+00    0.0000000000000000E+00    0.0000000000000000E+00    0.0000000000000000E+00    0.0000000000000000E+00
 -0.5108  -0.0764    0.2212233674726122E-01    0.0000000000000000E+00    0.0000000000000000E+00    0.2478210978441930E+00   -0.9829647947237987E+01    0.0000000000000000E+00    0.0000000000000000E+00    0.0000000000000000E+00    0.0000000000000000E+00    0.0000000000000000E+00
 -0.5141  -0.1076    0.2829159455868023E-01    0.0000000000000000E+00    0.0000000000000000E+00    0.2599510012408597E+00   -0.9630203938604168E+01    0.0000000000000000E+00    0.0000000000000000E+00    0.0000000000000000E+00    0.0000000000000000E+00    0.0000000000000000E+00
 -0.5173  -0.1380    0.3432778630199045E-01    0.0000000000000000E+00    0.0000000000000000E+00    0.2730334691129127E+00   -0.9163180217778216E+01    0.0000000000000000E+00    0.0000000000000000E+00    0.0000000000000000E+00    0.0000000000000000E+00    0.0000000000000000E+00
 -0.5204  -0.1677    0.3956402995590864E-01    0.0000000000000000E+00    0.0000000000000000E+00    0.2870194509740387E+00   -0.8448832970321000E+01    0.0000000000000000E+00    0.0000000000000000E+00    0.0000000000000000E+00    0.0000000000000000E+00    0.0000000000000000E+00
 -0.5234  -0.1964    0.4339543044416073E-01    0.0000000000000000E+00    0.0000000000000000E+00    0.3018348999649824E+00   -0.7530795235492953E+01    0.0000000000000000E+00    0.0000000000000000E+00    0.0000000000000000E+00    0.0000000000000000E+00    0.0000000000000000E+00
 -0.5263  -0.2240    0.4537008169350654E-01    0.0000000000000000E+00    0.0000000000000000E+00    0.3173811892658051E+00   -0.6473113727636190E+01    0.0000000000000000E+00    0.0000000000000000E+00    0.0000000000000000E+00    0.0000000000000000E+00    0.0000000000000000E+00
 -0.5291  -0.2504    0.4525680572438211E-01    0.0000000000000000E+00    0.0000000000000000E+00    0.3335361399823254E+00   -0.5352279373913936E+01    0.0000000000000000E+00    0.0000000000000000E+00    0.0000000000000000E+00    0.0000000000000000E+00    0.0000000000000000E+00
 -0.5317  -0.2756    0.4306885349786001E-01    0.0000000000000000E+00    0.0000000000000000E+00    0.3501543011919811E+00   -0.4245830432791147E+01    0.0000000000000000E+00    0.0000000000000000E+00    0.0000000000000000E+00    0.0000000000000000E+00    0.0000000000000000E+00
 -0.5342  -0.2994    0.3903736252308437E-01    0.0000000000000000E+00    0.0000000000000000E+00    0.3670650334809333E+00   -0.3220759965617173E+01    0.0000000000000000E+00    0.0000000000000000E+00    0.0000000000000000E+00    0.0000000000000000E+00    0.0000000000000000E+00
 -0.5366  -0.3216    0.3354646843376307E-01    0.0000000000000000E+00    0.0000000000000000E+00    0.3840678876021505E+00   -0.2325139502342445E+01    0.0000000000000000E+00    0.0000000000000000E+00    0.0000000000000000E+00    0.0000000000000000E+00    0.0000000000000000E+00
 -0.5387  -0.3422    0.2705387296188301E-01    0.0000000000000000E+00    0.0000000000000000E+00    0.4009267976342209E+00   -0.1584978077343922E+01    0.0000000000000000E+00    0.0000000000000000E+00    0.0000000000000000E+00    0.0000000000000000E+00    0.0000000000000000E+00
 -0.5407  -0.3612    0.2002068806025690E-01    0.0000000000000000E+00    0.0000000000000000E+00    0.4173669467706548E+00   -0.1006175056837322E+01    0.0000000000000000E+00    0.0000000000000000E+00    0.0000000000000000E+00    0.0000000000000000E+00    0.0000000000000000E+00
 -0.5425  -0.3784    0.1286478331510782E-01    0.0000000000000000E+00    0.0000000000000000E+00    0.4330792573774365E+00   -0.5796989607512001E+00    0.0000000000000000E+00    0.0000000000000000E+00    0.0000000000000000E+00    0.0000000000000000E+00    0.0000000000000000E+00
 -0.5441  -0.3937    0.5939814440035596E-02    0.0000000000000000E+00    0.0000000000000000E+00    0.4477358272148645E+00   -0.2875269058905298E+00    0.0000000000000000E+00    0.0000000000000000E+00    0.0000000000000000E+00    0.0000000000000000E+00    0.0000000000000000E+00
 -0.5455  -0.4071   -0.4670408133147485E-03    0.0000000000000000E+00    0.0000000000000000E+00    0.4610152162053452E+00   -0.1072559810579878E+00    0.0000000000000000E+00    0.0000000000000000E+00    0.0000000000000000E+00    0.0000000000000000E+00    0.0000000000000000E+00
 -0.5468  -0.4186   -0.6128954520735906E-02    0.0000000000000000E+00    0.0000000000000000E+00    0.4726312697585625E+00   -0.1445674028769530E-01    0.0000000000000000E+00    0.0000000000000000E+00    0.0000000000000000E+00    0.0000000000000000E+00    0.0000000000000000E+00
 -0.5477  -0.4281   -0.1087521936980020E-01    0.0000000000000000E+00    0.0000000000000000E+00    0.4823562589138903E+00    0.1700798578312280E-01    0.0000000000000000E+00    0.0000000000000000E+00    0.0000000000000000E+00    0.0000000000000000E+00    0.0000000000000000E+00
 -0.5485  -0.4354   -0.1459344094046328E-01    0.0000000000000000E+00    0.0000000000000000E+00    0.4900307067153655E+00    0.1451590391246086E-01    0.0000000000000000E+00    0.0000000000000000E+00    0.0000000000000000E+00    0.0000000000000000E+00    0.0000000000000000E+00
 -0.5491  -0.4407   -0.1723613758305101E-01    0.0000000000000000E+00    0.0000000000000000E+00    0.4955579421673897E+00    0.3842416651431415E-02    0.0000000000000000E+00    0.0000000000000000E+00    0.0000000000000000E+00    0.0000000000000000E+00    0.0000000000000000E+00
 -0.5494  -0.4439   -0.1881657942095629E-01    0.0000000000000000E+00    0.0000000000000000E+00    0.4988881013217906E+00   -0.1319696833252363E-03    0.0000000000000000E+00    0.0000000000000000E+00    0.0000000000000000E+00    0.0000000000000000E+00    0.0000000000000000E+00
 -0.5495  -0.4450   -0.1934620411838287E-01    0.0000000000000000E+00    0.0000000000000000E+00    0.5000000000000000E+00    0.0000000000000000E+00    0.0000000000000000E+00    0.0000000000000000E+00    0.0000000000000000E+00    0.0000000000000000E+00    0.0000000000000000E+00
 -0.4439   0.5494    0.2416725729156465E-01    0.0000000000000000E+00    0.0000000000000000E+00   -0.5000000000000000E+00   -0.2343108942519021E-03    0.0000000000000000E+00    0.0000000000000000E+00    0.0000000000000000E+00    0.0000000000000000E+00    0.0000000000000000E+00
 -0.4440   0.5483    0.2469511461232524E-01    0.2829261573258986E-06   -0.2830131961578229E-06   -0.4960290615362710E+00   -0.5335857573645433E-03   -0.1975261078565048E-09    0.4781521065590558E-09    0.4409703667756365E-12    0.4618866053518467E-12   -0.6013194391203680E-11
 -0.4444   0.5452    0.2626330470110288E-01    0.3580756214467842E-05   -0.6915482062189628E-06   -0.4841349192883193E+00   -0.2411987802200108E-02   -0.2056895567833611E-08    0.4812926144865531E-09    0.8658863556720853E-12    0.6741864011505783E-12   -0.2473085928753060E-10
 -0.4449   0.5399    0.2882119764809359E-01    0.5537051614949947E-05    0.2648909250356363E-06   -0.4643833766266285E+00   -0.2758066303223456E-02   -0.3428273635102697E-08    0.4843162767532994E-09    0.8946923063524181E-12    0.6339345281353159E-12   -0.5585679488384621E-10
 -0.4457   0.5325    0.3224215308032912E-01   -0.8758129043636225E-05    0.1735286838218834E-05   -0.4369149788737454E+00    0.1076113385718608E-01    0.4233555282103764E-08    0.4867976893981052E-09    0.7641508953382115E-12    0.6467049118441537E-12   -0.9969616972249629E-10
 -0.4467   0.5230    0.3629648261952437E-01   -0.5170906053978746E-04    0.3023626569926150E-05   -0.4019839573135162E+00    0.4969538444620913E-01    0.2740734905601971E-07    0.4891918935906459E-09    0.4837085593178969E-12    0.7002627644414616E-12   -0.1575659620139946E-09
 -0.4479   0.5116    0.4067630417686683E-01   -0.1243756298373585E-03    0.3654512511084066E-05   -0.3600005914692125E+00    0.1153089455491457E+00    0.6675230150480529E-07    0.4915644601435898E-09    0.1011690731189674E-12    0.6453691747676515E-12   -0.2315642365358084E-09
 -0.4493   0.4981    0.4502982592119380E-01   -0.2151968190744410E-03    0.3490383210696239E-05   -0.3115775985250284E+00    0.1973309214901546E+00    0.1158759704998830E-06    0.4942840373112212E-09   -0.3556564764917169E-12    0.6876270386424466E-12   -0.3255096504839461E-09
 -0.4509   0.4828    0.4899592705816418E-01   -0.3023945049232269E-03    0.2531611495714674E-05   -0.2575933060513761E+00    0.2758620482347510E+00    0.1631196230537820E-06    0.4977912257744799E-09   -0.8852016342153490E-12    0.6764484805632520E-12   -0.4431465402965351E-09
 -0.4527   0.4656    0.5223545364499103E-01   -0.3585047334766562E-03    0.9405275568919692E-06   -0.1992852577361916E+00    0.3256829389381120E+00    0.1936328716928861E-06    0.5027550502648137E-09   -0.1547650896327468E-11    0.6708678751410346E-12   -0.5878874678733048E-09
 -0.4547   0.4467    0.5445906546337745E-01   -0.3558660578430522E-03   -0.1064099203298195E-05   -0.1383664271565894E+00    0.3212241841219416E+00    0.1926121223457659E-06    0.5098804247739841E-09   -0.2433463153206361E-11    0.6219660203532484E-12   -0.7585054528913560E-09
 -0.4569   0.4260    0.5544912974466722E-01   -0.2720854301109002E-03   -0.3207790094849791E-05   -0.7711225372149104E-01    0.2417050427923022E+00    0.1479993075111658E-06    0.5198835893033271E-09   -0.3617099675334856E-11    0.6490311760254386E-12   -0.9439452414161664E-09
 -0.4592   0.4038    0.5507508402898040E-01   -0.9365717524072898E-04   -0.5269292109168961E-05   -0.1831642535984981E-01    0.7444700241089763E-01    0.5261427809986641E-07    0.5331773546973784E-09   -0.5116546075711881E-11    0.6550038289532267E-12   -0.1116440717652267E-08
 -0.4617   0.3800    0.5330283732342540E-01    0.1839275236048282E-03   -0.7115647946527949E-05    0.3500178137305001E-01   -0.1849118140204815E+00   -0.9596038135678270E-07    0.5496721636882862E-09   -0.6886949344142579E-11    0.6209061043094266E-12   -0.1230371568516908E-08
 -0.4644   0.3549    0.5019951542421878E-01    0.5597872173383595E-03   -0.8753545179633279E-05    0.8017552764536656E-01   -0.5357079260422991E+00   -0.2971958984804320E-06    0.5679586904949741E-09   -0.8874317947160648E-11    0.5650341305951656E-12   -0.1230896939929949E-08
 -0.4672   0.3284    0.4593097345220202E-01    0.1032641490890386E-02   -0.1026548424291825E-04    0.1155978729409259E+00   -0.9767750320429749E+00   -0.5504243733162209E-06    0.5851885677421453E-09   -0.1103898222831745E-10    0.5234215838534340E-12   -0.1073519814709378E-08
 -0.4701   0.3008    0.4074777385124396E-01    0.1603886279664696E-02   -0.1174902030318922E-04    0.1412125577266214E+00   -0.1509294937724113E+01   -0.8563965638011570E-06    0.5972731337289261E-09   -0.1336903504567388E-10    0.4283309817942893E-12   -0.7469481838606740E-09
 -0.4731   0.2721    0.3496053021633503E-01    0.2276848376819809E-02   -0.1323084982337802E-04    0.1584658107628877E+00   -0.2136096206010647E+01   -0.1216962715968458E-05    0.5998656016359405E-09   -0.1588536940877461E-10    0.3330183351302196E-12   -0.2824963284131510E-09
 -0.4762   0.2424    0.2891443616008650E-01    0.3052793885707474E-02   -0.1465176205629604E-04    0.1697056190181298E+00   -0.2857997571305909E+01   -0.1632855597191803E-05    0.5893464570527751E-09   -0.1858570936041914E-10    0.2113587083130142E-12    0.2557956502863279E-09
 -0.4794   0.2120    0.2297243880227827E-01    0.3925719049896486E-02   -0.1586639035188342E-04    0.1773725412507628E+00   -0.3669011132821757E+01   -0.2100945658423848E-05    0.5636280955845230E-09   -0.2139580179694178E-10    0.9189871086334733E-13    0.7967179086604270E-09
 -0.4827   0.1809    0.1750611355061533E-01    0.4878281438432763E-02   -0.1669557858041605E-04    0.1834069838874767E+00   -0.4552649159020530E+01   -0.2611995269019389E-05    0.5219609466866615E-09   -0.2411220528797386E-10    0.6494804694057166E-14    0.1284818920851104E-08
 -0.4860   0.1492    0.1288445842859438E-01    0.5880515683772567E-02   -0.1696696723772864E-04    0.1890619361135401E+00   -0.5480803035175541E+01   -0.3149995383602318E-05    0.4649565801817523E-09   -0.2639814755678316E-10   -0.1234151669748940E-12    0.1690361302753712E-08
 -0.4894   0.1171    0.9452506264779115E-02    0.6891608645990294E-02   -0.1655909920605388E-04    0.1950216869879495E+00   -0.6415455218733858E+01   -0.3693073770856137E-05    0.3942830333059089E-09   -0.2786423869416410E-10   -0.2493560913308102E-12    0.2005327068028279E-08
 -0.4928   0.0847    0.7499676584933067E-02    0.7863629374974345E-02   -0.1540457795432025E-04    0.2016195179437702E+00   -0.7312165768583793E+01   -0.4215515577357679E-05    0.3125904500522747E-09   -0.2817840405455740E-10   -0.3162331507766680E-12    0.2235318750411219E-08
 -0.4962   0.0522    0.7224107074501282E-02    0.8745672166426070E-02   -0.1348598110222797E-04    0.2090141392528888E+00   -0.8123917145032015E+01   -0.4689967816007455E-05    0.2234109806875662E-09   -0.2717218117176401E-10   -0.3606628884433860E-12    0.2390911376867755E-08
 -0.4996   0.0196    0.8700148433052911E-02    0.9487329528784474E-02   -0.1081339460604469E-04    0.2172892345052879E+00   -0.8804322157938119E+01   -0.5089316782480803E-05    0.1307833320807195E-09   -0.2486555406022717E-10   -0.3664915593226681E-12    0.2483605543446288E-08
 -0.5030  -0.0128    0.1185381324006304E-01    0.1004136577097504E-01   -0.7419722888483117E-05    0.2264962330029901E+00   -0.9310080687482714E+01   -0.5388121740724460E-05    0.3892816451134262E-10   -0.2148431432758002E-10   -0.3313876950628014E-12    0.2523419125564919E-08
 -0.5064  -0.0449    0.1644906912717432E-01    0.1036621452397131E-01   -0.3363512884866277E-05    0.2366679217796316E+00   -0.9603277942022407E+01   -0.5563957394202106E-05   -0.4828529329842235E-10   -0.1733674315218536E-10   -0.2414318744925481E-12    0.2518137490192807E-08
 -0.5097  -0.0765    0.2208821471837443E-01    0.1042919287323963E-01    0.1245540810146791E-05    0.2478202226847834E+00   -0.9654318863571929E+01   -0.5599154841832465E-05   -0.1277962687930290E-09   -0.1285704875897409E-10   -0.1054078699325167E-12    0.2475022966089147E-08
 -0.5130  -0.1077    0.2823146213621960E-01    0.1021090199137333E-01    0.6220464211931702E-05    0.2599500518566499E+00   -0.9445948357742131E+01   -0.5483160212893657E-05   -0.1976085909488612E-09   -0.8483769242673134E-11    0.3629041511743480E-13    0.2399433237168513E-08
 -0.5162  -0.1381    0.3424114950247088E-01    0.9710399321808193E-02    0.1127618262433127E-04    0.2730324486778077E+00   -0.8977925276917970E+01   -0.5215354445257187E-05   -0.2571186839828155E-09   -0.4621691918060833E-11    0.2184016856254800E-12    0.2296129756815257E-08
 -0.5193  -0.1678    0.3945226040392152E-01    0.8949645518983959E-02    0.1603859144561763E-04    0.2870183634393226E+00   -0.8271025652652659E+01   -0.4807433400429173E-05   -0.3069710874381570E-09   -0.1599387289275001E-11    0.3920336277829506E-12    0.2169279268368629E-08
 -0.5223  -0.1965    0.4326196157238903E-01    0.7975077053379978E-02    0.2009020019198414E-04    0.3018337485344889E+00   -0.7368365089290534E+01   -0.4284314703530181E-05   -0.3488965921727427E-09    0.3702038675612584E-12    0.5510314426970808E-12    0.2023487353369768E-08
 -0.5252  -0.2241    0.4522025251899017E-01    0.6854408943550724E-02    0.2304871686986745E-04    0.3173799748199634E+00   -0.6332408968531481E+01   -0.3682380297357229E-05   -0.3851179306013641E-09    0.1245836767083119E-11    0.7221861997308565E-12    0.1862128673479901E-08
 -0.5280  -0.2506    0.4509722822848396E-01    0.5668233198181401E-02    0.2465700610363403E-04    0.3335348603400309E+00   -0.5237221600534699E+01   -0.3045017845402335E-05   -0.4177908990987689E-09    0.1172340002852934E-11    0.8210654378615345E-12    0.1689682258693148E-08
 -0.5307  -0.2757    0.4290651295554838E-01    0.4498081716976902E-02    0.2484352760991476E-04    0.3501529522863526E+00   -0.4157590988143646E+01   -0.2416109452039099E-05   -0.4484450588648770E-09    0.4062306047103448E-12    0.9341277751317989E-12    0.1510020749065366E-08
 -0.5332  -0.2995    0.3887862482048402E-01    0.3414323031259148E-02    0.2373594027805551E-04    0.3670636132362242E+00   -0.3157976074614240E+01   -0.1833588459189219E-05   -0.4776972636899579E-09   -0.6993849943626174E-12    0.9629519404086295E-12    0.1327426337252580E-08
 -0.5355  -0.3217    0.3339637224891738E-01    0.2467434314130791E-02    0.2160817320186132E-04    0.3840664023349767E+00   -0.2284618514934258E+01   -0.1324617003630155E-05   -0.5053231860729923E-09   -0.1824373985215288E-11    0.9803963196830523E-12    0.1145669547078509E-08
 -0.5377  -0.3424    0.2691578099922081E-01    0.1684738265217797E-02    0.1880414284674554E-04    0.4009252693128366E+00   -0.1562538863631310E+01   -0.9039517086643728E-06   -0.5305677355793570E-09   -0.2701547319183817E-11    0.9762607389163236E-12    0.9685388272645534E-09
 -0.5397  -0.3613    0.1989641911052968E-01    0.1072446133718848E-02    0.1564252095749979E-04    0.4173654180564177E+00   -0.9974600411427638E+00   -0.5748888009993812E-06   -0.5525301570441510E-09   -0.3203971810084028E-11    0.9898193376045583E-12    0.7993998570737793E-09
 -0.5415  -0.3785    0.1275496683317381E-01    0.6210631858266177E-03    0.1237111573699357E-04    0.4330777910066613E+00   -0.5806538860087981E+00   -0.3323729397446271E-06   -0.5705804544120507E-09   -0.3299669240099112E-11    0.9702100234321165E-12    0.6418450944345455E-09
 -0.5431  -0.3938    0.5844387983417053E-02    0.3115743421248439E-03    0.9134680344172886E-05    0.4477344976574110E+00   -0.2946489666785618E+00   -0.1661049273702649E-06   -0.5844609310412530E-09   -0.3067237436260584E-11    0.9487272079056197E-12    0.4976949945917353E-09
 -0.5445  -0.4073   -0.5485795171535682E-03    0.1202509945090256E-03    0.6030767501225605E-05    0.4610140944780849E+00   -0.1174807683334259E+00   -0.6342814454267639E-07   -0.5944676279012739E-09   -0.2630090589761380E-11    0.9366118991493977E-12    0.3689660799111039E-09
 -0.5457  -0.4187   -0.6197597791865256E-02    0.2109394840704053E-04    0.3153434586597391E-05    0.4726304056153222E+00   -0.2505677508378933E-01   -0.1028318026543592E-07   -0.6012003854818926E-09   -0.2144048827368294E-11    0.9275982759682222E-12    0.2581540875165600E-09
 -0.5467  -0.4282   -0.1093305587863311E-01   -0.1373070362374864E-04    0.7524025000031415E-06    0.4823556668072268E+00    0.8572512719708913E-02    0.8104397916025753E-08   -0.6057612781610461E-09   -0.1730223603280123E-11    0.9289262067890824E-12    0.1659968846406956E-09
 -0.5475  -0.4356   -0.1464466520047776E-01   -0.1324876187363566E-04   -0.8058127103088744E-06    0.4900303614959184E+00    0.1012940280493416E-01    0.7544022891250476E-08   -0.6091971174477379E-09   -0.1458000387088987E-11    0.9156573069213358E-12    0.9380710921588764E-10
 -0.5480  -0.4409   -0.1728761511063308E-01   -0.3933205700959603E-05   -0.1054268987013780E-05    0.4955577867896593E+00    0.3609694335645899E-02    0.2086334247626152E-08   -0.6131955915256171E-09   -0.1255768275823521E-11    0.9617155162511271E-12    0.4205609731994242E-10
 -0.5483  -0.4440   -0.1887035172418056E-01   -0.1057026929756087E-06   -0.1059827436239152E-06    0.4988880623858467E+00    0.5213437003538540E-03    0.9199978893610463E-10   -0.6176045313729429E-09   -0.6653387693220103E-12    0.6606178278023567E-12    0.1059769893368978E-10
 -0.5485  -0.4451   -0.1940003937695530E-01    0.0000000000000000E+00    0.0000000000000000E+00    0.5000000000000000E+00   -0.1313922696360194E-03    0.0000000000000000E+00    0.0000000000000000E+00    0.0000000000000000E+00    0.0000000000000000E+00    0.0000000000000000E+00
 -0.4407   0.5491    0.2432848034178959E-01    0.0000000000000000E+00    0.0000000000000000E+00   -0.5000000000000000E+00   -0.4310070864792472E-02    0.0000000000000000E+00    0.0000000000000000E+00    0.0000000000000000E+00    0.0000000000000000E+00    0.0000000000000000E+00
 -0.4409   0.5480    0.2485630266651341E-01    0.6913672800316685E-06   -0.3580751604683844E-05   -0.4960278114133069E+00   -0.2411790098615053E-02   -0.2056924828011595E-08    0.4811412793789133E-09    0.6422825596028026E-12    0.8612182690083403E-12   -0.6064280804948807E-11
 -0.4412   0.5448    0.2642249532541984E-01    0.5087965286108468E-05   -0.5088480739267037E-05   -0.4841299395522122E+00    0.2104614964847804E-02   -0.1891062610538128E-07    0.4823443133621097E-09    0.2009026191934771E-11    0.2071632362182774E-11   -0.2477433319256206E-10
 -0.4417   0.5395    0.2896799765604188E-01   -0.6176374673391955E-06    0.6604015188419758E-05   -0.4643723300232941E+00    0.8602710117316311E-02   -0.1883237675095163E-07    0.4844582391499985E-09    0.2731802631328328E-11    0.2559726736128809E-11   -0.5568734449262758E-10
 -0.4425   0.5321    0.3236470259507632E-01   -0.6103590806717896E-04    0.2690662758451329E-04   -0.4368958926867106E+00    0.2343914609788546E-01    0.1073016640918122E-06    0.4867476526004832E-09    0.2591347275648914E-11    0.2760694450820722E-11   -0.9951714452505200E-10
 -0.4435   0.5227    0.3639224308607634E-01   -0.2198960278781445E-03    0.4536948448164226E-04   -0.4019552777440520E+00    0.5598840291323588E-01    0.4586532164122385E-06    0.4890418105196748E-09    0.1767631180316087E-11    0.2826853334747526E-11   -0.1575336406461902E-09
 -0.4447   0.5112    0.4074993643629653E-01   -0.4841419791117841E-03    0.5477638459687520E-04   -0.3599608664699055E+00    0.1090177953720969E+00    0.1048157932640250E-05    0.4914276242884430E-09    0.4740626294297279E-12    0.2884865957231142E-11   -0.2317990521749635E-09
 -0.4461   0.4978    0.4508962439784992E-01   -0.8130768823978149E-03    0.5211213207042882E-04   -0.3115249492443548E+00    0.1748699683684412E+00    0.1783475501393770E-05    0.4941539399894168E-09   -0.1144067479641464E-11    0.2884617891774077E-11   -0.3254761876680945E-09
 -0.4477   0.4825    0.4905076364022846E-01   -0.1125685497000917E-02    0.3737472183449018E-04   -0.2575250773278297E+00    0.2364755989441345E+00    0.2485844443589904E-05    0.4976782042032113E-09   -0.3075272675401308E-11    0.2905471002678794E-11   -0.4430729741433659E-09