 title="result"
 variables="x","y","P","u","v","t","omega","psi","RES1","RES2","RES3","RES4"
zone,j= 49,i= 49,f=point
 -0.5000   0.5000    0.2263960467386872E-01    0.0000000000000000E+00    0.0000000000000000E+00   -0.5000000000000000E+00    0.0000000000000000E+00    0.0000000000000000E+00    0.0000000000000000E+00    0.0000000000000000E+00    0.0000000000000000E+00    0.0000000000000000E+00
 -0.5000   0.4989    0.2317011247102198E-01    0.0000000000000000E+00    0.0000000000000000E+00   -0.4963847805042247E+00   -0.3797216496331322E-03    0.0000000000000000E+00    0.0000000000000000E+00    0.0000000000000000E+00    0.0000000000000000E+00    0.0000000000000000E+00
 -0.5000   0.4957    0.2475772861624849E-01    0.0000000000000000E+00    0.0000000000000000E+00   -0.4855559383380660E+00   -0.4673113648010186E-02    0.0000000000000000E+00    0.0000000000000000E+00    0.0000000000000000E+00    0.0000000000000000E+00    0.0000000000000000E+00
 -0.5000   0.4904    0.2737134776527366E-01    0.0000000000000000E+00    0.0000000000000000E+00   -0.4675715941773135E+00   -0.1049728792009401E-02    0.0000000000000000E+00    0.0000000000000000E+00    0.0000000000000000E+00    0.0000000000000000E+00    0.0000000000000000E+00
 -0.5000   0.4830    0.3087647003259445E-01    0.0000000000000000E+00    0.0000000000000000E+00   -0.4425513541070234E+00    0.3564798306652387E-01    0.0000000000000000E+00    0.0000000000000000E+00    0.0000000000000000E+00    0.0000000000000000E+00    0.0000000000000000E+00
 -0.5000   0.4735    0.3501102701827256E-01    0.0000000000000000E+00    0.0000000000000000E+00   -0.4106989196179655E+00    0.1217405875267933E+00    0.0000000000000000E+00    0.0000000000000000E+00    0.0000000000000000E+00    0.0000000000000000E+00    0.0000000000000000E+00
 -0.5000   0.4619    0.3943511445289631E-01    0.0000000000000000E+00    0.0000000000000000E+00   -0.3723157143294963E+00    0.2553877250544746E+00    0.0000000000000000E+00    0.0000000000000000E+00    0.0000000000000000E+00    0.0000000000000000E+00    0.0000000000000000E+00
 -0.5000   0.4484    0.4377648782975015E-01    0.0000000000000000E+00    0.0000000000000000E+00   -0.3278087467428238E+00    0.4164676078106753E+00    0.0000000000000000E+00    0.0000000000000000E+00    0.0000000000000000E+00    0.0000000000000000E+00    0.0000000000000000E+00
 -0.5000   0.4330    0.4767567326529125E-01    0.0000000000000000E+00    0.0000000000000000E+00   -0.2777185966346395E+00    0.5709605832451853E+00    0.0000000000000000E+00    0.0000000000000000E+00    0.0000000000000000E+00    0.0000000000000000E+00    0.0000000000000000E+00
 -0.5000   0.4157    0.5082010801909505E-01    0.0000000000000000E+00    0.0000000000000000E+00   -0.2228050464291333E+00    0.6788660906822673E+00    0.0000000000000000E+00    0.0000000000000000E+00    0.0000000000000000E+00    0.0000000000000000E+00    0.0000000000000000E+00
 -0.5000   0.3967    0.5296555123436376E-01    0.0000000000000000E+00    0.0000000000000000E+00   -0.1642122015998045E+00    0.7039730269124533E+00    0.0000000000000000E+00    0.0000000000000000E+00    0.0000000000000000E+00    0.0000000000000000E+00    0.0000000000000000E+00
 -0.5000   0.3759    0.5393885563279274E-01    0.0000000000000000E+00    0.0000000000000000E+00   -0.1036830172509650E+00    0.6227612197759091E+00    0.0000000000000000E+00    0.0000000000000000E+00    0.0000000000000000E+00    0.0000000000000000E+00    0.0000000000000000E+00
 -0.5000   0.3536    0.5363101048146903E-01    0.0000000000000000E+00    0.0000000000000000E+00   -0.4370850901434689E-01    0.4283017370497359E+00    0.0000000000000000E+00    0.0000000000000000E+00    0.0000000000000000E+00    0.0000000000000000E+00    0.0000000000000000E+00
 -0.5000   0.3297    0.5199474648909559E-01    0.0000000000000000E+00    0.0000000000000000E+00    0.1257968934661628E-01    0.1270339340728997E+00    0.0000000000000000E+00    0.0000000000000000E+00    0.0000000000000000E+00    0.0000000000000000E+00    0.0000000000000000E+00
 -0.5000   0.3044    0.4905856978113643E-01    0.0000000000000000E+00    0.0000000000000000E+00    0.6193416484184806E-01   -0.2696261281077228E+00    0.0000000000000000E+00    0.0000000000000000E+00    0.0000000000000000E+00    0.0000000000000000E+00    0.0000000000000000E+00
 -0.5000   0.2778    0.4494745808043613E-01    0.0000000000000000E+00    0.0000000000000000E+00    0.1018669963952813E+00   -0.7533284067727863E+00    0.0000000000000000E+00    0.0000000000000000E+00    0.0000000000000000E+00    0.0000000000000000E+00    0.0000000000000000E+00
 -0.5000   0.2500    0.3988870161246248E-01    0.0000000000000000E+00    0.0000000000000000E+00    0.1314757003428121E+00   -0.1322077419781404E+01    0.0000000000000000E+00    0.0000000000000000E+00    0.0000000000000000E+00    0.0000000000000000E+00    0.0000000000000000E+00
 -0.5000   0.2211    0.3419117533530261E-01    0.0000000000000000E+00    0.0000000000000000E+00    0.1517010254552540E+00   -0.1978288834639192E+01    0.0000000000000000E+00    0.0000000000000000E+00    0.0000000000000000E+00    0.0000000000000000E+00    0.0000000000000000E+00
 -0.5000   0.1913    0.2821173054360093E-01    0.0000000000000000E+00    0.0000000000000000E+00    0.1648194499688980E+00   -0.2723852948692153E+01    0.0000000000000000E+00    0.0000000000000000E+00    0.0000000000000000E+00    0.0000000000000000E+00    0.0000000000000000E+00
 -0.5000   0.1607    0.2232829614678663E-01    0.0000000000000000E+00    0.0000000000000000E+00    0.1735030483657049E+00   -0.3554347404703899E+01    0.0000000000000000E+00    0.0000000000000000E+00    0.0000000000000000E+00    0.0000000000000000E+00    0.0000000000000000E+00
 -0.5000   0.1294    0.1692480350967903E-01    0.0000000000000000E+00    0.0000000000000000E+00    0.1800148614874632E+00   -0.4454332159001809E+01    0.0000000000000000E+00    0.0000000000000000E+00    0.0000000000000000E+00    0.0000000000000000E+00    0.0000000000000000E+00
 -0.5000   0.0975    0.1237710909169833E-01    0.0000000000000000E+00    0.0000000000000000E+00    0.1858727107895226E+00   -0.5395445370772848E+01    0.0000000000000000E+00    0.0000000000000000E+00    0.0000000000000000E+00    0.0000000000000000E+00    0.0000000000000000E+00
 -0.5000   0.0653    0.9029803024249152E-02    0.0000000000000000E+00    0.0000000000000000E+00    0.1919232593209867E+00   -0.6337910289690547E+01    0.0000000000000000E+00    0.0000000000000000E+00    0.0000000000000000E+00    0.0000000000000000E+00    0.0000000000000000E+00
 -0.5000   0.0327    0.7162462352773558E-02    0.0000000000000000E+00    0.0000000000000000E+00    0.1985800825159196E+00   -0.7234385835608601E+01    0.0000000000000000E+00    0.0000000000000000E+00    0.0000000000000000E+00    0.0000000000000000E+00    0.0000000000000000E+00
 -0.5000   0.0000    0.6952084067784479E-02    0.0000000000000000E+00    0.0000000000000000E+00    0.2060354270015732E+00   -0.8034495628449594E+01    0.0000000000000000E+00    0.0000000000000000E+00    0.0000000000000000E+00    0.0000000000000000E+00    0.0000000000000000E+00
 -0.5000  -0.0327    0.8439578097708351E-02    0.0000000000000000E+00    0.0000000000000000E+00    0.2143852766998099E+00   -0.8688827811772830E+01    0.0000000000000000E+00    0.0000000000000000E+00    0.0000000000000000E+00    0.0000000000000000E+00    0.0000000000000000E+00
 -0.5000  -0.0653    0.1150648536704326E-01    0.0000000000000000E+00    0.0000000000000000E+00    0.2236850306465145E+00   -0.9152228480589921E+01    0.0000000000000000E+00    0.0000000000000000E+00    0.0000000000000000E+00    0.0000000000000000E+00    0.0000000000000000E+00
 -0.5000  -0.0975    0.1586568273508312E-01    0.0000000000000000E+00    0.0000000000000000E+00    0.2339682420921936E+00   -0.9386913000918607E+01    0.0000000000000000E+00    0.0000000000000000E+00    0.0000000000000000E+00    0.0000000000000000E+00    0.0000000000000000E+00
 -0.5000  -0.1294    0.2107013579736176E-01    0.0000000000000000E+00    0.0000000000000000E+00    0.2452501205296885E+00   -0.9366115677370910E+01    0.0000000000000000E+00    0.0000000000000000E+00    0.0000000000000000E+00    0.0000000000000000E+00    0.0000000000000000E+00
 -0.5000  -0.1607    0.2654414947987685E-01    0.0000000000000000E+00    0.0000000000000000E+00    0.2575260048892240E+00   -0.9078456984868158E+01    0.0000000000000000E+00    0.0000000000000000E+00    0.0000000000000000E+00    0.0000000000000000E+00    0.0000000000000000E+00
 -0.5000  -0.1913    0.3164041234677124E-01    0.0000000000000000E+00    0.0000000000000000E+00    0.2707688965112767E+00   -0.8532339799963720E+01    0.0000000000000000E+00    0.0000000000000000E+00    0.0000000000000000E+00    0.0000000000000000E+00    0.0000000000000000E+00
 -0.5000  -0.2211    0.3572012134259193E-01    0.0000000000000000E+00    0.0000000000000000E+00    0.2849276871798169E+00   -0.7758759034157438E+01    0.0000000000000000E+00    0.0000000000000000E+00    0.0000000000000000E+00    0.0000000000000000E+00    0.0000000000000000E+00
 -0.5000  -0.2500    0.3824421204146779E-01    0.0000000000000000E+00    0.0000000000000000E+00    0.2999266726303839E+00   -0.6810649699033754E+01    0.0000000000000000E+00    0.0000000000000000E+00    0.0000000000000000E+00    0.0000000000000000E+00    0.0000000000000000E+00
 -0.5000  -0.2778    0.3885470412686851E-01    0.0000000000000000E+00    0.0000000000000000E+00    0.3156661646041234E+00   -0.5757556250257272E+01    0.0000000000000000E+00    0.0000000000000000E+00    0.0000000000000000E+00    0.0000000000000000E+00    0.0000000000000000E+00
 -0.5000  -0.3044    0.3742334524470512E-01    0.0000000000000000E+00    0.0000000000000000E+00    0.3320232441181481E+00   -0.4676087650263887E+01    0.0000000000000000E+00    0.0000000000000000E+00    0.0000000000000000E+00    0.0000000000000000E+00    0.0000000000000000E+00
 -0.5000  -0.3297    0.3405316648313061E-01    0.0000000000000000E+00    0.0000000000000000E+00    0.3488511796197723E+00   -0.3638435045484088E+01    0.0000000000000000E+00    0.0000000000000000E+00    0.0000000000000000E+00    0.0000000000000000E+00    0.0000000000000000E+00
 -0.5000  -0.3536    0.2903491504424066E-01    0.0000000000000000E+00    0.0000000000000000E+00    0.3659762539186665E+00   -0.2702272832030866E+01    0.0000000000000000E+00    0.0000000000000000E+00    0.0000000000000000E+00    0.0000000000000000E+00    0.0000000000000000E+00
 -0.5000  -0.3759    0.2277581797453899E-01    0.0000000000000000E+00    0.0000000000000000E+00    0.3831920746235379E+00   -0.1904807496152857E+01    0.0000000000000000E+00    0.0000000000000000E+00    0.0000000000000000E+00    0.0000000000000000E+00    0.0000000000000000E+00
 -0.5000  -0.3967    0.1572467737530910E-01    0.0000000000000000E+00    0.0000000000000000E+00    0.4002536883061748E+00   -0.1262031210325301E+01    0.0000000000000000E+00    0.0000000000000000E+00    0.0000000000000000E+00    0.0000000000000000E+00    0.0000000000000000E+00
 -0.5000  -0.4157    0.8312901726114805E-02    0.0000000000000000E+00    0.0000000000000000E+00    0.4168759043451808E+00   -0.7722350270678695E+00    0.0000000000000000E+00    0.0000000000000000E+00    0.0000000000000000E+00    0.0000000000000000E+00    0.0000000000000000E+00
 -0.5000  -0.4330    0.9199889854567380E-03    0.0000000000000000E+00    0.0000000000000000E+00    0.4327405414765521E+00   -0.4216681442658404E+00    0.0000000000000000E+00    0.0000000000000000E+00    0.0000000000000000E+00    0.0000000000000000E+00    0.0000000000000000E+00
 -0.5000  -0.4484   -0.6138380969907962E-02    0.0000000000000000E+00    0.0000000000000000E+00    0.4475147580581855E+00   -0.1900869791906611E+00    0.0000000000000000E+00    0.0000000000000000E+00    0.0000000000000000E+00    0.0000000000000000E+00    0.0000000000000000E+00
 -0.5000  -0.4619   -0.1260819644905761E-01    0.0000000000000000E+00    0.0000000000000000E+00    0.4608778521682261E+00   -0.5463885344467726E-01    0.0000000000000000E+00    0.0000000000000000E+00    0.0000000000000000E+00    0.0000000000000000E+00    0.0000000000000000E+00
 -0.5000  -0.4735   -0.1829014100642630E-01    0.0000000000000000E+00    0.0000000000000000E+00    0.4725493318851848E+00    0.8383587902828111E-02    0.0000000000000000E+00    0.0000000000000000E+00    0.0000000000000000E+00    0.0000000000000000E+00    0.0000000000000000E+00
 -0.5000  -0.4830   -0.2303616130664029E-01    0.0000000000000000E+00    0.0000000000000000E+00    0.4823094501885395E+00    0.2333157110521092E-01    0.0000000000000000E+00    0.0000000000000000E+00    0.0000000000000000E+00    0.0000000000000000E+00    0.0000000000000000E+00
 -0.5000  -0.4904   -0.2675118064807797E-01    0.0000000000000000E+00    0.0000000000000000E+00    0.4900060473522497E+00    0.1451095521949246E-01    0.0000000000000000E+00    0.0000000000000000E+00    0.0000000000000000E+00    0.0000000000000000E+00    0.0000000000000000E+00
 -0.5000  -0.4957   -0.2939728669672781E-01    0.0000000000000000E+00    0.0000000000000000E+00    0.4955472680293914E+00    0.3236477236251075E-02    0.0000000000000000E+00    0.0000000000000000E+00    0.0000000000000000E+00    0.0000000000000000E+00    0.0000000000000000E+00
 -0.5000  -0.4989   -0.3098510711428750E-01    0.0000000000000000E+00    0.0000000000000000E+00    0.4988854479490518E+00   -0.1591753442764949E-03    0.0000000000000000E+00    0.0000000000000000E+00    0.0000000000000000E+00    0.0000000000000000E+00    0.0000000000000000E+00
 -0.5000  -0.5000   -0.3151814449825571E-01    0.0000000000000000E+00    0.0000000000000000E+00    0.5000000000000000E+00    0.0000000000000000E+00    0.0000000000000000E+00    0.0000000000000000E+00    0.0000000000000000E+00    0.0000000000000000E+00    0.0000000000000000E+00
 -0.4989   0.5000    0.2264242978012153E-01    0.0000000000000000E+00    0.0000000000000000E+00   -0.5000000000000000E+00   -0.3796858790259056E-03    0.0000000000000000E+00    0.0000000000000000E+00    0.0000000000000000E+00    0.0000000000000000E+00    0.0000000000000000E+00
 -0.4989   0.4989    0.2317293812784051E-01    0.3636917546465327E-06   -0.3637028592777939E-06   -0.4963847133540515E+00   -0.5592932085282496E-03   -0.2589634825871269E-09   -0.4119709171241173E-09   -0.3660404227986969E-12   -0.3645438985400151E-12    0.4707703790598344E-11
 -0.4989   0.4957    0.2475865213568025E-01    0.3298439235885447E-05   -0.4470358148316671E-06   -0.4855556727602374E+00   -0.1427203768055100E-02   -0.2014143939595694E-08   -0.4144441174795677E-09   -0.6964177498569590E-12   -0.5375799852063443E-12    0.1855338864313605E-10
 -0.4989   0.4904    0.2736389427056860E-01   -0.2277425771516517E-05    0.1504618091641145E-05   -0.4675710217383642E+00    0.5466038615859063E-02    0.5993741072377606E-09   -0.4167939708643598E-09   -0.7541120505827337E-12   -0.5049138190882374E-12    0.4208553904677670E-10
 -0.4989   0.4830    0.3085680028586259E-01   -0.4110433858091792E-04    0.3981762767007259E-05   -0.4425504230666452E+00    0.4122693721095610E-01    0.2151880310695362E-07   -0.4187901787508497E-09   -0.7259158552042067E-12   -0.5203094899375316E-12    0.7553974720048151E-10
 -0.4989   0.4735    0.3498176079362876E-01   -0.1306385403479884E-03    0.5978040438149051E-05   -0.4106976391173389E+00    0.1223779755582636E+00    0.6986091496802166E-07   -0.4209573627178553E-09   -0.6143962292051719E-12   -0.5361787402957674E-12    0.1199308603816451E-09
 -0.4989   0.4619    0.3940156829928346E-01   -0.2696387957313579E-03    0.6824570774943933E-05   -0.3723141095385213E+00    0.2483558091471416E+00    0.1450170984429855E-06   -0.4234936464009298E-09   -0.4034064748914545E-12   -0.5482593545824699E-12    0.1785400351866917E-09
 -0.4989   0.4484    0.4374511768284169E-01   -0.4374316029096646E-03    0.6392550180442317E-05   -0.3278067839893020E+00    0.4007300352041189E+00    0.2356280595736013E-06   -0.4267386114614746E-09   -0.5842548667089886E-13   -0.5444568407231287E-12    0.2558226009502507E-09
 -0.4989   0.4330    0.4765237607816182E-01   -0.5984537995426887E-03    0.4738868861694267E-05   -0.2777161132708343E+00    0.5470341992102282E+00    0.3226162884486327E-06   -0.4310566591170240E-09    0.5001346559119213E-12   -0.5516420653606247E-12    0.3568531789510665E-09
 -0.4989   0.4157    0.5080930919338637E-01   -0.7105748060237693E-03    0.2209294359053637E-05   -0.2228017214176148E+00    0.6485937691431086E+00    0.3832173599734328E-06   -0.4369057841208113E-09    0.1387612247327752E-11   -0.5564992910933597E-12    0.4884457317777535E-09
 -0.4989   0.3967    0.5296935464348834E-01   -0.7354307224367768E-03   -0.7588322800941655E-06   -0.1642075997302417E+00    0.6699196999927869E+00    0.3968985757506172E-06   -0.4448035327651173E-09    0.2724667713671636E-11   -0.5495131259747321E-12    0.6527016566115762E-09
 -0.4989   0.3759    0.5395703204851685E-01   -0.6478510174834083E-03   -0.3664212099683318E-05   -0.1036767342536687E+00    0.5875256632611281E+00    0.3501223971071148E-06   -0.4553231880075059E-09    0.4581363066691324E-11   -0.5589556595353429E-12    0.8422030850496753E-09
 -0.4989   0.3536    0.5366156225877979E-01   -0.4400923419756656E-03   -0.6171866407475295E-05   -0.4370041091192327E-01    0.3938535123658298E+00    0.2388543858788198E-06   -0.4689780404298904E-09    0.6930539475646924E-11   -0.5304333361433322E-12    0.1031221621983214E-08
 -0.4989   0.3297    0.5203512242930514E-01   -0.1185873346048483E-03   -0.8152200089784332E-05    0.1258922474769105E-01    0.9449134869952294E-01    0.6657375054860442E-07   -0.4857876913233472E-09    0.9691095148589568E-11   -0.5372161049344015E-12    0.1172270239213624E-08
 -0.4989   0.3044    0.4910668416856936E-01    0.3047875591195267E-03   -0.9717342509426195E-05    0.6194418585574906E-01   -0.2998021668340045E+00   -0.1602618367764759E-06   -0.5044762524386570E-09    0.1275272942802275E-10   -0.5007452785754651E-12    0.1203167232510793E-08
 -0.4989   0.2778    0.4500222587354372E-01    0.8211868674677476E-03   -0.1105747320061499E-04    0.1018762374068410E+00   -0.7808422271772498E+00   -0.4369352218703536E-06   -0.5219339578588222E-09    0.1603693566831765E-10   -0.4014566457044566E-12    0.1069641139550548E-08
 -0.4989   0.2500    0.3994984447811076E-01    0.1428321631310195E-02   -0.1234858287033891E-04    0.1314830791915174E+00   -0.1346354462499416E+01   -0.7622182038292087E-06   -0.5334730990291803E-09    0.1944941430132019E-10   -0.3558264793923627E-12    0.7528219783670131E-09
 -0.4989   0.2211    0.3425875492818552E-01    0.2128455739479529E-02   -0.1364946633332738E-04    0.1517060624303800E+00   -0.1998144472353510E+01   -0.1137406079999198E-05   -0.5341389726354340E-09    0.2290398426474383E-10   -0.2968875145725747E-12    0.2839411206156939E-09
 -0.4989   0.1913    0.2828554752820107E-01    0.2923189222706666E-02   -0.1491692192439743E-04    0.1648223315575507E+00   -0.2737315384793538E+01   -0.1563407535515982E-05   -0.5198657511418237E-09    0.2630212714294089E-10   -0.1594974152752116E-12   -0.2679705103647567E-09
 -0.4989   0.1607    0.2240744477448143E-01    0.3807347268336441E-02   -0.1599989030007349E-04    0.1735043555002747E+00   -0.3558616466768081E+01   -0.2037551413708354E-05   -0.4883484068518573E-09    0.2948806823721561E-10   -0.4042599588416351E-13   -0.8244269242979607E-09
 -0.4989   0.1294    0.1700739029340610E-01    0.4764054731930949E-02   -0.1670554190884090E-04    0.1800152179485493E+00   -0.4445965058894551E+01   -0.2550848856765219E-05   -0.4389101686264052E-09    0.3218330116294688E-10    0.5859202012459264E-13   -0.1324957374718161E-08
 -0.4989   0.0975    0.1246030904820395E-01    0.5762810282503441E-02   -0.1683801882049436E-04    0.1858725728725673E+00   -0.5370737255496152E+01   -0.3087013839908926E-05   -0.3724916555758462E-09    0.3399033832174325E-10    0.1955935413633370E-12   -0.1737922837976094E-08
 -0.4989   0.0653    0.9110090346736799E-02    0.6761161273762231E-02   -0.1626052229778195E-04    0.1919228826861382E+00   -0.6293402353120889E+01   -0.3623286213944113E-05   -0.2914101251971779E-09    0.3451874897031360E-10    0.2770561557952078E-12   -0.2055980054174039E-08
 -0.4989   0.0327    0.7235963108423260E-02    0.7708832636774151E-02   -0.1489612157408323E-04    0.1985795813710863E+00   -0.7167375497762323E+01   -0.4132694619580400E-05   -0.1992468308398276E-09    0.3346009580518228E-10    0.3615163723935666E-12   -0.2286031626150264E-08
 -0.4989   0.0000    0.7014843319233453E-02    0.8552537822749836E-02   -0.1273238716541283E-04    0.2060348419518493E+00   -0.7943484118800771E+01   -0.4586591941910708E-05   -0.1005725364100485E-09    0.3072617160704283E-10    0.3884254029529188E-12   -0.2439902317512288E-08
 -0.4989  -0.0327    0.8487786224861318E-02    0.9240208649374151E-02   -0.9793327889407511E-05    0.2143846181455011E+00   -0.8573864813486837E+01   -0.4956967804003421E-05   -0.5560378546487499E-12    0.2647637664665581E-10    0.3708214291187062E-12   -0.2529775862750161E-08
 -0.4989  -0.0653    0.1153662341790047E-01    0.9724461362861951E-02   -0.6141109371925657E-05    0.2236842993536124E+00   -0.9015148867643122E+01   -0.5218282451010361E-05    0.9572650311318043E-10    0.2100475349209319E-10    0.3192897335413392E-12   -0.2566604537408701E-08
 -0.4989  -0.0975    0.1587473936374164E-01    0.9965861878147131E-02   -0.1874062911656169E-05    0.2339674372203385E+00   -0.9231449874202998E+01   -0.5349251486719069E-05    0.1835935934529909E-09    0.1477007405270570E-10    0.2048821182154548E-12   -0.2558429709406673E-08
 -0.4989  -0.1294    0.2105588367659316E-01    0.9936739656658476E-02    0.2846084724392237E-05    0.2452492423585083E+00   -0.9197838662516460E+01   -0.5334885572144990E-05    0.2595576956490597E-09    0.8281264562981505E-11    0.6952598219367445E-13   -0.2512323526299154E-08
 -0.4989  -0.1607    0.2650555918340717E-01    0.9625733941281462E-02    0.7779897152688429E-05    0.2575250554470084E+00   -0.8904472200936407E+01   -0.5168958396862527E-05    0.3215943795986664E-09    0.2071121052438230E-11   -0.1153868667280733E-12   -0.2433691071584976E-08
 -0.4989  -0.1913    0.3157805517524949E-01    0.9042337222650687E-02    0.1259983492397698E-04    0.2707678791466252E+00   -0.8360680424362309E+01   -0.4856463337556721E-05    0.3693687994354988E-09   -0.3323674668820331E-11   -0.2856048730848215E-12   -0.2327297889126445E-08
 -0.4989  -0.2211    0.3563648524565562E-01    0.8219751046361341E-02    0.1691901830009540E-04    0.2849266053997560E+00   -0.7597498998397876E+01   -0.4415165921876588E-05    0.4043033199896406E-09   -0.7488176745340525E-11   -0.4983236046030015E-12   -0.2197631868150474E-08
 -0.4989  -0.2500    0.3814369039354282E-01    0.7214105665389247E-02    0.2034768446561132E-04    0.2999255285455711E+00   -0.6666853188392009E+01   -0.3875212083403399E-05    0.4291666119704551E-09   -0.1009914374350274E-10   -0.6202677260702671E-12   -0.2048537563539843E-08
 -0.4989  -0.2778    0.3874322572691322E-01    0.6098803981883639E-02    0.2257501483299942E-04    0.3156649576227948E+00   -0.5636334447737873E+01   -0.3276071346997071E-05    0.4475229770095623E-09   -0.1111777336859632E-10   -0.8237022175450193E-12   -0.1883822084436382E-08
 -0.4989  -0.3044    0.3730760349942281E-01    0.4954494870834714E-02    0.2344342095086184E-04    0.3320219708394933E+00   -0.4579997260418703E+01   -0.2661165860152161E-05    0.4628784716631529E-09   -0.1066488564127610E-10   -0.9299505610016467E-12   -0.1707604021725095E-08
 -0.4989  -0.3297    0.3393970883247609E-01    0.3857065041558007E-02    0.2298315380931738E-04    0.3488498358918262E+00   -0.3567427880661566E+01   -0.2071350721624149E-05    0.4778738307842367E-09   -0.9088396701883994E-11   -0.1077429812035291E-11   -0.1524337260583319E-08
 -0.4989  -0.3536    0.2892927835373130E-01    0.2867100227443471E-02    0.2139871303965671E-04    0.3659748395075588E+00   -0.2654130409683624E+01   -0.1539278970184677E-05    0.4938838296664194E-09   -0.6854364298369831E-11   -0.1094763169007251E-11   -0.1337822977398595E-08
 -0.4989  -0.3759    0.2268202001863738E-01    0.2023686443766241E-02    0.1899874829895207E-04    0.3831905998033474E+00   -0.1875927740166238E+01   -0.1085982898932867E-05    0.5110284972964507E-09   -0.4421074617511067E-11   -0.1119257464488044E-11   -0.1152420464611836E-08
 -0.4989  -0.3967    0.1564507270227707E-01    0.1343639088648743E-02    0.1612190272836217E-04    0.4002521802509169E+00   -0.1248231159775999E+01   -0.7205451297023408E-06    0.5285520944531275E-09   -0.2179666169777050E-11   -0.1120339931937053E-11   -0.9720268322882530E-09
 -0.4989  -0.4157    0.8248436150280413E-02    0.8251742680557998E-03    0.1305249824293794E-04    0.4168744102195497E+00   -0.7694314490224853E+00   -0.4419682392994827E-06    0.5452916000681096E-09   -0.3718587937573403E-12   -0.1115406378371375E-11   -0.8006386716802316E-09
 -0.4989  -0.4330    0.8705961398003501E-03    0.4538177831344433E-03    0.9998732671215571E-05    0.4327391254381648E+00   -0.4262218068685212E+00   -0.2425043030786879E-06    0.5602066172061271E-09    0.8876250429112886E-12   -0.1100848578960978E-11   -0.6408684832814870E-09
 -0.4989  -0.4484   -0.6173339961775884E-02    0.2081951813590678E-03    0.7070770106509933E-05    0.4475134912880919E+00   -0.1989375474597833E+00   -0.1106043761611153E-06    0.5725516397797614E-09    0.1617345146698312E-11   -0.1075528555105620E-11   -0.4956425755930915E-09
 -0.4989  -0.4619   -0.1262974283723927E-01    0.6409005481970198E-04    0.4352504290179903E-05    0.4608767978999631E+00   -0.6515953967510636E-01   -0.3333245756366731E-07    0.5821643635911533E-09    0.1911609759375210E-11   -0.1057945397953119E-11   -0.3671026971990843E-09
 -0.4989  -0.4735   -0.1829979032620816E-01   -0.3715520229357904E-05    0.1926666525196616E-05    0.4725485299272577E+00   -0.1522528065538881E-02    0.2930921595503844E-08    0.5891946691823080E-09    0.1914871039510047E-11   -0.1045653147402348E-11   -0.2560634777132309E-09
 -0.4989  -0.4830   -0.2303641596850374E-01   -0.2111138702401236E-04    0.2789875105007387E-07    0.4823089064619176E+00    0.1606283307770425E-01    0.1195411443842824E-07    0.5943664637748274E-09    0.1770240204423956E-11   -0.1031835749655541E-11   -0.1647488118150520E-09
 -0.4989  -0.4904   -0.2674632417208948E-01   -0.1378756731544015E-04   -0.1055874029284620E-05    0.4900057327009777E+00    0.1117791425737052E-01    0.7730997778670515E-08    0.5984171806087263E-09    0.1589358852860379E-11   -0.9982912933803600E-12   -0.9314082881697883E-10
 -0.4989  -0.4957   -0.2939341365353539E-01   -0.3506145274534281E-05   -0.9904580179347781E-06    0.4955471269611320E+00    0.3430510900613653E-02    0.1828536372707872E-08    0.6029398983125461E-09    0.1389724598420405E-11   -0.1052175273991152E-11   -0.4137713012931227E-10
 -0.4989  -0.4989   -0.3098347606162942E-01   -0.6791734899973279E-07   -0.6822076301522702E-07    0.4988854126389613E+00    0.4472294339362384E-03    0.6134808840487648E-10    0.6077691107548092E-09    0.7286276616780274E-12   -0.7085384796240435E-12   -0.1024539632819843E-10
 -0.4989  -0.5000   -0.3151651424323604E-01    0.0000000000000000E+00    0.0000000000000000E+00    0.5000000000000000E+00   -0.1585983210676503E-03    0.0000000000000000E+00    0.0000000000000000E+00    0.0000000000000000E+00    0.0000000000000000E+00    0.0000000000000000E+00
 -0.4957   0.5000    0.2262937289374563E-01    0.0000000000000000E+00    0.0000000000000000E+00   -0.5000000000000000E+00   -0.4673330719545532E-02    0.0000000000000000E+00    0.0000000000000000E+00    0.0000000000000000E+00    0.0000000000000000E+00    0.0000000000000000E+00
 -0.4957   0.4989    0.2316178049368574E-01    0.4471358942688487E-06   -0.3298825989682965E-05   -0.4963837071026669E+00   -0.1427739042635798E-02   -0.2014346001565829E-08   -0.4143737369292216E-09   -0.5268820319273559E-12   -0.6858040611096294E-12    0.4602194385132374E-11
 -0.4957   0.4957    0.2474748869906373E-01   -0.8547663469776877E-06    0.8567122507358614E-06   -0.4855516894928655E+00    0.6810812169907587E-02   -0.1017042577467837E-07   -0.4153052931936407E-09   -0.1626387392816842E-11   -0.1629037182926396E-11    0.1873536156944688E-10
 -0.4957   0.4904    0.2733801971630998E-01   -0.3881325610259127E-04    0.2582031916753365E-04   -0.4675623715789755E+00    0.2138298093674321E-01    0.5699562252493358E-07   -0.4169402548909185E-09   -0.2332830977003209E-11   -0.1973546326361486E-11    0.4206167272119421E-10
 -0.4957   0.4830    0.3080370589077775E-01   -0.1907092119283043E-03    0.6093610470377535E-04   -0.4425360951438568E+00    0.5505776753389748E-01    0.3846823454114135E-06   -0.4188004491811892E-09   -0.2489996056564969E-11   -0.2119179831616691E-11    0.7524844289341637E-10
 -0.4957   0.4735    0.3490419272264312E-01   -0.5211921939597081E-03    0.9005935485689834E-04   -0.4106773972758961E+00    0.1227179318024992E+00    0.1116469389764881E-05   -0.4208669801553100E-09   -0.2205750773004445E-11   -0.2188173253703241E-11    0.1200389787570089E-09
 -0.4957   0.4619    0.3931225543408302E-01   -0.1031769360096965E-02    0.1031741629857055E-03   -0.3722879680123300E+00    0.2271191676517353E+00    0.2250290495887397E-05   -0.4233519229623894E-09   -0.1492903023425640E-11   -0.2269569948643024E-11    0.1786397973990717E-09
 -0.4957   0.4484    0.4366113263118541E-01   -0.1649600310531885E-02    0.9669594728741113E-04   -0.3277740464039853E+00    0.3544273316880909E+00    0.3620982133276757E-05   -0.4265262518177160E-09   -0.2247368957597473E-12   -0.2362759293772498E-11    0.2556638685480284E-09
 -0.4957   0.4330    0.4759022994341584E-01   -0.2242627762613420E-02    0.7163972743398803E-04   -0.2776744460885687E+00    0.4768986292333294E+00    0.4936837698622003E-05   -0.4307421433424885E-09    0.1875548327756604E-11   -0.2482378885781955E-11    0.3568520860752766E-09