 title="result"
 variables="x","y","P","u","v","t","omega","psi","RES1","RES2","RES3","RES4"
zone,j= 49,i= 49,f=point
 -0.3820   0.5951    0.2517189195551453E-01    0.0000000000000000E+00    0.0000000000000000E+00   -0.5000000000000000E+00    0.0000000000000000E+00    0.0000000000000000E+00    0.0000000000000000E+00    0.0000000000000000E+00    0.0000000000000000E+00    0.0000000000000000E+00
 -0.3822   0.5940    0.2569113182391971E-01    0.0000000000000000E+00    0.0000000000000000E+00   -0.4956999367514895E+00   -0.5276871119150097E-04    0.0000000000000000E+00    0.0000000000000000E+00    0.0000000000000000E+00    0.0000000000000000E+00    0.0000000000000000E+00
 -0.3829   0.5909    0.2722213948946878E-01    0.0000000000000000E+00    0.0000000000000000E+00   -0.4828202041966681E+00   -0.4215089833507878E-02    0.0000000000000000E+00    0.0000000000000000E+00    0.0000000000000000E+00    0.0000000000000000E+00    0.0000000000000000E+00
 -0.3840   0.5857    0.2970471066828067E-01    0.0000000000000000E+00    0.0000000000000000E+00   -0.4614343674010906E+00   -0.1649413481203016E-01    0.0000000000000000E+00    0.0000000000000000E+00    0.0000000000000000E+00    0.0000000000000000E+00    0.0000000000000000E+00
 -0.3856   0.5784    0.3302976137694996E-01    0.0000000000000000E+00    0.0000000000000000E+00   -0.4317054840920715E+00   -0.3180841707733716E-01    0.0000000000000000E+00    0.0000000000000000E+00    0.0000000000000000E+00    0.0000000000000000E+00    0.0000000000000000E+00
 -0.3876   0.5691    0.3700361231830368E-01    0.0000000000000000E+00    0.0000000000000000E+00   -0.3939448137309322E+00   -0.4158416115200236E-01    0.0000000000000000E+00    0.0000000000000000E+00    0.0000000000000000E+00    0.0000000000000000E+00    0.0000000000000000E+00
 -0.3901   0.5579    0.4135499829191535E-01    0.0000000000000000E+00    0.0000000000000000E+00   -0.3486879430649883E+00   -0.4020901203207139E-01    0.0000000000000000E+00    0.0000000000000000E+00    0.0000000000000000E+00    0.0000000000000000E+00    0.0000000000000000E+00
 -0.3929   0.5447    0.4575346606630954E-01    0.0000000000000000E+00    0.0000000000000000E+00   -0.2967816866417406E+00   -0.2736950517769076E-01    0.0000000000000000E+00    0.0000000000000000E+00    0.0000000000000000E+00    0.0000000000000000E+00    0.0000000000000000E+00
 -0.3962   0.5296    0.4983367522389800E-01    0.0000000000000000E+00    0.0000000000000000E+00   -0.2394729743114603E+00   -0.8910912943392635E-02    0.0000000000000000E+00    0.0000000000000000E+00    0.0000000000000000E+00    0.0000000000000000E+00    0.0000000000000000E+00
 -0.3999   0.5127    0.5322590377505515E-01    0.0000000000000000E+00    0.0000000000000000E+00   -0.1784830727407364E+00    0.3068529354755181E-02    0.0000000000000000E+00    0.0000000000000000E+00    0.0000000000000000E+00    0.0000000000000000E+00    0.0000000000000000E+00
 -0.4040   0.4941    0.5559388670513610E-01    0.0000000000000000E+00    0.0000000000000000E+00   -0.1160356305648597E+00   -0.9297625840435492E-02    0.0000000000000000E+00    0.0000000000000000E+00    0.0000000000000000E+00    0.0000000000000000E+00    0.0000000000000000E+00
 -0.4084   0.4738    0.5667670193982161E-01    0.0000000000000000E+00    0.0000000000000000E+00   -0.5479096658326925E-01   -0.6748086720486760E-01    0.0000000000000000E+00    0.0000000000000000E+00    0.0000000000000000E+00    0.0000000000000000E+00    0.0000000000000000E+00
 -0.4132   0.4520    0.5632433428307829E-01    0.0000000000000000E+00    0.0000000000000000E+00    0.2366505868099583E-02   -0.1924795661887386E+00    0.0000000000000000E+00    0.0000000000000000E+00    0.0000000000000000E+00    0.0000000000000000E+00    0.0000000000000000E+00
 -0.4183   0.4287    0.5451464788428671E-01    0.0000000000000000E+00    0.0000000000000000E+00    0.5271706233979882E-01   -0.4004723323703948E+00    0.0000000000000000E+00    0.0000000000000000E+00    0.0000000000000000E+00    0.0000000000000000E+00    0.0000000000000000E+00
 -0.4236   0.4039    0.5134686447910675E-01    0.0000000000000000E+00    0.0000000000000000E+00    0.9422575311836250E-01   -0.7010718810708380E+00    0.0000000000000000E+00    0.0000000000000000E+00    0.0000000000000000E+00    0.0000000000000000E+00    0.0000000000000000E+00
 -0.4293   0.3780    0.4701788046534785E-01    0.0000000000000000E+00    0.0000000000000000E+00    0.1260321615746630E+00   -0.1099205511411921E+01    0.0000000000000000E+00    0.0000000000000000E+00    0.0000000000000000E+00    0.0000000000000000E+00    0.0000000000000000E+00
 -0.4352   0.3508    0.4179303212019380E-01    0.0000000000000000E+00    0.0000000000000000E+00    0.1486686529398027E+00   -0.1598344895765842E+01    0.0000000000000000E+00    0.0000000000000000E+00    0.0000000000000000E+00    0.0000000000000000E+00    0.0000000000000000E+00
 -0.4414   0.3226    0.3598036957098345E-01    0.0000000000000000E+00    0.0000000000000000E+00    0.1638399164413698E+00   -0.2201623171579398E+01    0.0000000000000000E+00    0.0000000000000000E+00    0.0000000000000000E+00    0.0000000000000000E+00    0.0000000000000000E+00
 -0.4477   0.2935    0.2991308127332451E-01    0.0000000000000000E+00    0.0000000000000000E+00    0.1738334949854464E+00   -0.2909600292878883E+01    0.0000000000000000E+00    0.0000000000000000E+00    0.0000000000000000E+00    0.0000000000000000E+00    0.0000000000000000E+00
 -0.4543   0.2636    0.2394064334696086E-01    0.0000000000000000E+00    0.0000000000000000E+00    0.1808549615697264E+00   -0.3716236910791448E+01    0.0000000000000000E+00    0.0000000000000000E+00    0.0000000000000000E+00    0.0000000000000000E+00    0.0000000000000000E+00
 -0.4609   0.2330    0.1842404299064689E-01    0.0000000000000000E+00    0.0000000000000000E+00    0.1865918436391349E+00   -0.4605562529758704E+01    0.0000000000000000E+00    0.0000000000000000E+00    0.0000000000000000E+00    0.0000000000000000E+00    0.0000000000000000E+00
 -0.4677   0.2019    0.1372665956894359E-01    0.0000000000000000E+00    0.0000000000000000E+00    0.1921125360253416E+00   -0.5550644574856069E+01    0.0000000000000000E+00    0.0000000000000000E+00    0.0000000000000000E+00    0.0000000000000000E+00    0.0000000000000000E+00
 -0.4746   0.1703    0.1019470641436508E-01    0.0000000000000000E+00    0.0000000000000000E+00    0.1979968065519979E+00   -0.6515065634404930E+01    0.0000000000000000E+00    0.0000000000000000E+00    0.0000000000000000E+00    0.0000000000000000E+00    0.0000000000000000E+00
 -0.4815   0.1385    0.8127827849567292E-02    0.0000000000000000E+00    0.0000000000000000E+00    0.2045293171683370E+00   -0.7455996508631237E+01    0.0000000000000000E+00    0.0000000000000000E+00    0.0000000000000000E+00    0.0000000000000000E+00    0.0000000000000000E+00
 -0.4885   0.1066    0.7745659010975842E-02    0.0000000000000000E+00    0.0000000000000000E+00    0.2118493739536129E+00   -0.8327565520856911E+01    0.0000000000000000E+00    0.0000000000000000E+00    0.0000000000000000E+00    0.0000000000000000E+00    0.0000000000000000E+00
 -0.4955   0.0746    0.9156606770831520E-02    0.0000000000000000E+00    0.0000000000000000E+00    0.2200337490787861E+00   -0.9083572574204865E+01    0.0000000000000000E+00    0.0000000000000000E+00    0.0000000000000000E+00    0.0000000000000000E+00    0.0000000000000000E+00
 -0.5024   0.0428    0.1233263145813219E-01    0.0000000000000000E+00    0.0000000000000000E+00    0.2291317714393650E+00   -0.9679392864546244E+01    0.0000000000000000E+00    0.0000000000000000E+00    0.0000000000000000E+00    0.0000000000000000E+00    0.0000000000000000E+00
 -0.5093   0.0113    0.1709181019861235E-01    0.0000000000000000E+00    0.0000000000000000E+00    0.2391761555347658E+00   -0.1007366505153292E+02    0.0000000000000000E+00    0.0000000000000000E+00    0.0000000000000000E+00    0.0000000000000000E+00    0.0000000000000000E+00
 -0.5161  -0.0199    0.2309113899188334E-01    0.0000000000000000E+00    0.0000000000000000E+00    0.2501839431263875E+00   -0.1023071651728377E+02    0.0000000000000000E+00    0.0000000000000000E+00    0.0000000000000000E+00    0.0000000000000000E+00    0.0000000000000000E+00
 -0.5228  -0.0505    0.2983467162149513E-01    0.0000000000000000E+00    0.0000000000000000E+00    0.2621540754377590E+00   -0.1012445070162963E+02    0.0000000000000000E+00    0.0000000000000000E+00    0.0000000000000000E+00    0.0000000000000000E+00    0.0000000000000000E+00
 -0.5293  -0.0804    0.3670426167372488E-01    0.0000000000000000E+00    0.0000000000000000E+00    0.2750642566978548E+00   -0.9743656878717179E+01    0.0000000000000000E+00    0.0000000000000000E+00    0.0000000000000000E+00    0.0000000000000000E+00    0.0000000000000000E+00
 -0.5356  -0.1095    0.4301843496665091E-01    0.0000000000000000E+00    0.0000000000000000E+00    0.2888683619906775E+00   -0.9097603141123217E+01    0.0000000000000000E+00    0.0000000000000000E+00    0.0000000000000000E+00    0.0000000000000000E+00    0.0000000000000000E+00
 -0.5418  -0.1377    0.4811745883194820E-01    0.0000000000000000E+00    0.0000000000000000E+00    0.3034950926005540E+00   -0.8219795454951736E+01    0.0000000000000000E+00    0.0000000000000000E+00    0.0000000000000000E+00    0.0000000000000000E+00    0.0000000000000000E+00
 -0.5477  -0.1648    0.5146068620196767E-01    0.0000000000000000E+00    0.0000000000000000E+00    0.3188480814920585E+00   -0.7167540690772367E+01    0.0000000000000000E+00    0.0000000000000000E+00    0.0000000000000000E+00    0.0000000000000000E+00    0.0000000000000000E+00
 -0.5534  -0.1908    0.5271170820655010E-01    0.0000000000000000E+00    0.0000000000000000E+00    0.3348069624449068E+00   -0.6015934775428654E+01    0.0000000000000000E+00    0.0000000000000000E+00    0.0000000000000000E+00    0.0000000000000000E+00    0.0000000000000000E+00
 -0.5588  -0.2155    0.5178517385785084E-01    0.0000000000000000E+00    0.0000000000000000E+00    0.3512281852918247E+00   -0.4846988164755006E+01    0.0000000000000000E+00    0.0000000000000000E+00    0.0000000000000000E+00    0.0000000000000000E+00    0.0000000000000000E+00
 -0.5639  -0.2389    0.4884044567779885E-01    0.0000000000000000E+00    0.0000000000000000E+00    0.3679440252154532E+00   -0.3736804694341055E+01    0.0000000000000000E+00    0.0000000000000000E+00    0.0000000000000000E+00    0.0000000000000000E+00    0.0000000000000000E+00
 -0.5686  -0.2607    0.4422679224472886E-01    0.0000000000000000E+00    0.0000000000000000E+00    0.3847588397614755E+00   -0.2744747913725557E+01    0.0000000000000000E+00    0.0000000000000000E+00    0.0000000000000000E+00    0.0000000000000000E+00    0.0000000000000000E+00
 -0.5730  -0.2810    0.3840200312552537E-01    0.0000000000000000E+00    0.0000000000000000E+00    0.4014434327054223E+00   -0.1907625422227944E+01    0.0000000000000000E+00    0.0000000000000000E+00    0.0000000000000000E+00    0.0000000000000000E+00    0.0000000000000000E+00
 -0.5771  -0.2996    0.3185173600764893E-01    0.0000000000000000E+00    0.0000000000000000E+00    0.4177308728614281E+00   -0.1239729192877161E+01    0.0000000000000000E+00    0.0000000000000000E+00    0.0000000000000000E+00    0.0000000000000000E+00    0.0000000000000000E+00
 -0.5808  -0.3165    0.2502990526640169E-01    0.0000000000000000E+00    0.0000000000000000E+00    0.4333188261322264E+00   -0.7372761969433824E+00    0.0000000000000000E+00    0.0000000000000000E+00    0.0000000000000000E+00    0.0000000000000000E+00    0.0000000000000000E+00
 -0.5841  -0.3316    0.1832722844297572E-01    0.0000000000000000E+00    0.0000000000000000E+00    0.4478826262645170E+00   -0.3846555609856878E+00    0.0000000000000000E+00    0.0000000000000000E+00    0.0000000000000000E+00    0.0000000000000000E+00    0.0000000000000000E+00
 -0.5870  -0.3448    0.1206332689610241E-01    0.0000000000000000E+00    0.0000000000000000E+00    0.4610992760623018E+00   -0.1598397010003460E+00    0.0000000000000000E+00    0.0000000000000000E+00    0.0000000000000000E+00    0.0000000000000000E+00    0.0000000000000000E+00
 -0.5894  -0.3560    0.6491403780302785E-02    0.0000000000000000E+00    0.0000000000000000E+00    0.4726768936296111E+00   -0.3749710263725537E-01    0.0000000000000000E+00    0.0000000000000000E+00    0.0000000000000000E+00    0.0000000000000000E+00    0.0000000000000000E+00
 -0.5914  -0.3653    0.1803329904019896E-02    0.0000000000000000E+00    0.0000000000000000E+00    0.4823801084626086E+00    0.1042170795677917E-01    0.0000000000000000E+00    0.0000000000000000E+00    0.0000000000000000E+00    0.0000000000000000E+00    0.0000000000000000E+00
 -0.5930  -0.3726   -0.1872511142607326E-02    0.0000000000000000E+00    0.0000000000000000E+00    0.4900425240716840E+00    0.1435187575143144E-01    0.0000000000000000E+00    0.0000000000000000E+00    0.0000000000000000E+00    0.0000000000000000E+00    0.0000000000000000E+00
 -0.5942  -0.3778   -0.4479648790331442E-02    0.0000000000000000E+00    0.0000000000000000E+00    0.4955629165574661E+00    0.4402560218407802E-02    0.0000000000000000E+00    0.0000000000000000E+00    0.0000000000000000E+00    0.0000000000000000E+00    0.0000000000000000E+00
 -0.5948  -0.3809   -0.6033618061198554E-02    0.0000000000000000E+00    0.0000000000000000E+00    0.4988893292771389E+00   -0.1051276990819914E-03    0.0000000000000000E+00    0.0000000000000000E+00    0.0000000000000000E+00    0.0000000000000000E+00    0.0000000000000000E+00
 -0.5951  -0.3820   -0.6553437423066660E-02    0.0000000000000000E+00    0.0000000000000000E+00    0.5000000000000000E+00    0.0000000000000000E+00    0.0000000000000000E+00    0.0000000000000000E+00    0.0000000000000000E+00    0.0000000000000000E+00    0.0000000000000000E+00
 -0.3809   0.5948    0.2528744375087235E-01    0.0000000000000000E+00    0.0000000000000000E+00   -0.5000000000000000E+00   -0.5293589939810802E-04    0.0000000000000000E+00    0.0000000000000000E+00    0.0000000000000000E+00    0.0000000000000000E+00    0.0000000000000000E+00
 -0.3811   0.5938    0.2580619451237943E-01    0.1974480127420861E-06   -0.1975395270670733E-06   -0.4956998343853055E+00   -0.5482847423000355E-03   -0.1329509441186315E-09    0.7175163928719447E-09    0.4956727845013831E-12    0.4698296873079100E-12   -0.8795088680783880E-11
 -0.3818   0.5907    0.2733678084189757E-01    0.4261976818688115E-05   -0.1074130312773391E-05   -0.4828197934113738E+00   -0.3901629288468823E-02   -0.2291219578128330E-08    0.7208446513307099E-09    0.9060215685335882E-12    0.6763847294755099E-12   -0.3441850190272211E-10
 -0.3830   0.5855    0.2981613962627290E-01    0.1603485425210480E-04   -0.1288812807934500E-05   -0.4614334372521164E+00   -0.1348561064174387E-01   -0.8898996797048343E-08    0.7242866597277631E-09    0.9089864277944670E-12    0.6945321054385722E-12   -0.7727299095733331E-10
 -0.3845   0.5782    0.3313264026288048E-01    0.3120290936221433E-04   -0.8958612021433444E-06   -0.4317038230674278E+00   -0.2653468249110821E-01   -0.1718087932383331E-07    0.7273912021755341E-09    0.5943110586992262E-12    0.7013109711018206E-12   -0.1380481545049106E-09
 -0.3866   0.5689    0.3709478030602673E-01    0.4124929088656697E-04   -0.2605528181187975E-06   -0.3939422185021677E+00   -0.3551050853066754E-01   -0.2266652168480552E-07    0.7303794583024548E-09   -0.5401061542453789E-13    0.7180061666750559E-12   -0.2156700165678593E-09
 -0.3890   0.5577    0.4143302482292198E-01    0.4025128608155916E-04    0.3204304422864540E-06   -0.3486842221963255E+00   -0.3504009016440177E-01   -0.2202510382245173E-07    0.7329629107431443E-09   -0.9924543825645671E-12    0.7044078861873082E-12   -0.3120769510867039E-09
 -0.3919   0.5445    0.4581811596404486E-01    0.2780687259049607E-04    0.6372384761758377E-06   -0.2967766658299464E+00   -0.2463078427754583E-01   -0.1515222225303641E-07    0.7351755439231195E-09   -0.2098762136304444E-11    0.7016015372840467E-12   -0.4260577030068546E-09
 -0.3952   0.5294    0.4988558446923508E-01    0.1000731603234260E-04    0.5734132197577237E-06   -0.2394665154892009E+00   -0.9848354898563564E-02   -0.5262262384618314E-08    0.7372279824374023E-09   -0.3237735600458702E-11    0.6851173274535771E-12   -0.5573348310639048E-09
 -0.3989   0.5125    0.5326649459365460E-01   -0.4202684944314080E-06    0.5083258915904422E-07   -0.1784751149700131E+00   -0.2347461630241099E-02    0.7337943298698247E-09    0.7396851688082806E-09   -0.4307667070269083E-11    0.6814474115199309E-12   -0.7007417632265422E-09
 -0.4029   0.4939    0.5562519649336056E-01    0.1535315655944944E-04   -0.9527866307102802E-06   -0.1160262510541739E+00   -0.1945495125351108E-01   -0.7249432287080237E-08    0.7431916757352774E-09   -0.5266898028821743E-11    0.6692528475849002E-12   -0.8463515582812775E-09
 -0.4074   0.4736    0.5670111175304047E-01    0.7998631524077927E-04   -0.2382692811110439E-05   -0.5478044940248653E-01   -0.8201655022283261E-01   -0.4143554844417549E-07    0.7483094708118920E-09   -0.6115739858980618E-11    0.6427063742320271E-12   -0.9750844159883698E-09
 -0.4121   0.4518    0.5634416807936287E-01    0.2156859738600384E-03   -0.4094439676898054E-05    0.2377620719346810E-02   -0.2105309898537686E+00   -0.1137300955280036E-06    0.7550840126768765E-09   -0.6874348312813083E-11    0.6431452592714493E-12   -0.1056438311830554E-08
 -0.4172   0.4284    0.5453198362526502E-01    0.4396356547624907E-03   -0.5911252413123792E-05    0.5272799580805640E-01   -0.4209152673849939E+00   -0.2333792191052777E-06    0.7627770793466881E-09   -0.7575849669816392E-11    0.6115559447739116E-12   -0.1050802167501530E-08
 -0.4226   0.4037    0.5136359544413665E-01    0.7621150394196140E-03   -0.7702726102452278E-05    0.9423561668323427E-01   -0.7227696952451145E+00   -0.4058682251603543E-06    0.7693847382111985E-09   -0.8254050221090381E-11    0.5294792382315450E-12   -0.9186772731428761E-09
 -0.4283   0.3777    0.4703591995913439E-01    0.1188408528425123E-02   -0.9432987566245761E-05    0.1260401930112290E+00   -0.1121036311873993E+01   -0.6340396320379825E-06    0.7717245800731298E-09   -0.8928038863764698E-11    0.4598751934814516E-12   -0.6366257451762003E-09
 -0.4342   0.3506    0.4181426886190341E-01    0.1722142801857754E-02   -0.1112333307934839E-04    0.1486744571965692E+00   -0.1619023394289182E+01   -0.9198384470940742E-06    0.7659525062819750E-09   -0.9630053698916896E-11    0.3923389391147225E-12   -0.2116083905323585E-09
 -0.4403   0.3224    0.3600633885750035E-01    0.2366436389678041E-02   -0.1278099181841849E-04    0.1638435660165465E+00   -0.2219420613221121E+01   -0.1264985341729156E-05    0.7486100211950841E-09   -0.1037930158487299E-10    0.2710748292500398E-12    0.3145442101226692E-09
 -0.4467   0.2933    0.2994448579497335E-01    0.3121545960147428E-02   -0.1434441052397529E-04    0.1738354245772763E+00   -0.2922148600017043E+01   -0.1669671597973942E-05    0.7173098295898406E-09   -0.1118789436094225E-10    0.1503241975342462E-12    0.8783080287372291E-09
 -0.4532   0.2634    0.2397705099872770E-01    0.3980643964808365E-02   -0.1568532784260609E-04    0.1808557371720546E+00   -0.3720489155070547E+01   -0.2130312178645511E-05    0.6713528101498500E-09   -0.1199148245978332E-10    0.3164135620181696E-13    0.1415629380212280E-08
 -0.4599   0.2328    0.1846382977287052E-01    0.4926349216827597E-02   -0.1664112293998123E-04    0.1865919557389010E+00   -0.4597941248890725E+01   -0.2637651152559327E-05    0.6115786800597878E-09   -0.1261319174106212E-10   -0.7814582314580321E-13    0.1880392077561067E-08
 -0.4667   0.2016    0.1376721854882733E-01    0.5929705485414319E-02   -0.1706111776410734E-04    0.1921123083936591E+00   -0.5527340911136123E+01   -0.3176212575569907E-05    0.5399726082933043E-09   -0.1278453731767826E-10   -0.1836308882730009E-12    0.2251093832606604E-08
 -0.4736   0.1701    0.1023274968430673E-01    0.6951811180882121E-02   -0.1683437121498713E-04    0.1979964092507091E+00   -0.6472428917014424E+01   -0.3725159067143126E-05    0.4595355901360065E-09   -0.1222015544311006E-10   -0.2956801470332948E-12    0.2525286159002493E-08
 -0.4805   0.1383    0.8159710858811920E-02    0.7947118163616974E-02   -0.1590037792657665E-04    0.2045288218791176E+00   -0.7390942034878362E+01   -0.4260054189492703E-05    0.3738788376117519E-09   -0.1070052380036657E-10   -0.3675393323021581E-12    0.2712940403576392E-08
 -0.4875   0.1063    0.7767589897462695E-02    0.8867018523652327E-02   -0.1423572634834808E-04    0.2118488036848586E+00   -0.8237940622144370E+01   -0.4754794226796478E-05    0.2870555598777358E-09   -0.8174377841285718E-11   -0.3941985626809696E-12    0.2826757761024978E-08
 -0.4944   0.0744    0.9164776443385808E-02    0.9662720037376541E-02   -0.1183895765191861E-04    0.2200331074944960E+00   -0.8968472373384049E+01   -0.5183137935333973E-05    0.2032741371060798E-09   -0.4786004925705356E-11   -0.3977998486170975E-12    0.2879719716158968E-08
 -0.5014   0.0426    0.1232325362633661E-01    0.1028725851538353E-01   -0.8716988073682248E-05    0.2291310562874590E+00   -0.9539420259400716E+01   -0.5519809545676741E-05    0.1263010702967637E-09   -0.8482103908136196E-12   -0.3722022690055837E-12    0.2882140008424183E-08
 -0.5083   0.0110    0.1706121281967716E-01    0.1069728217950067E-01   -0.4892814232432460E-05    0.2391753639332740E+00   -0.9911158213170996E+01   -0.5741430119126628E-05    0.5906844458003491E-10    0.3219480237959260E-11   -0.2650553387884003E-12    0.2843201752159019E-08
 -0.5150  -0.0201    0.2303594025192576E-01    0.1085560940853844E-01   -0.4259983795757307E-06    0.2501830735688436E+00   -0.1004989211764082E+02   -0.5827928359348818E-05    0.3149111830677565E-11    0.6898370763508410E-11   -0.1691487661742430E-12    0.2769698928539732E-08
 -0.5217  -0.0507    0.2975215724128856E-01    0.1073530867640945E-01    0.4549987620579591E-05    0.2621531285152553E+00   -0.9931409496991005E+01   -0.5764696902422485E-05   -0.4148727715536094E-10    0.9725997784926221E-11    0.1005098781980962E-13    0.2666698514786070E-08
 -0.5282  -0.0806    0.3659288611059748E-01    0.1032524123717150E-01    0.9798912642638635E-05    0.2750632350678271E+00   -0.9546107291408093E+01   -0.5545634500450163E-05   -0.7653102457316763E-10    0.1131394977704758E-10    0.1811190086797865E-12    0.2539454448807765E-08
 -0.5346  -0.1097    0.4287840287545659E-01    0.9635857599579748E-02    0.1496926098910077E-04    0.2888672696233582E+00   -0.8904248000846168E+01   -0.5176223914970026E-05   -0.1049860268165226E-09    0.1146255312889366E-10    0.3972794315743045E-12    0.2391810244653514E-08
 -0.5407  -0.1379    0.4795112399651834E-01    0.8703034666349396E-02    0.1962699515522025E-04    0.3034939333576411E+00   -0.8039345413232427E+01   -0.4675687619941918E-05   -0.1304736249596594E-09    0.1018057860235899E-10    0.5453276719080691E-12    0.2227261266044001E-08
 -0.5467  -0.1651    0.5127262966394213E-01    0.7587505444346740E-02    0.2332509635730663E-04    0.3188468574006242E+00   -0.7007563058817018E+01   -0.4076621229246064E-05   -0.1563926974035290E-09    0.7732425810758059E-11    0.6850492395571450E-12    0.2049566311806972E-08
 -0.5523  -0.1911    0.5250828762153868E-01    0.6368479995135672E-02    0.2570631905354514E-04    0.3348056724749285E+00   -0.5881776786859660E+01   -0.3421660873850453E-05   -0.1850111938650478E-09    0.4576394818656127E-11    0.8065909051779840E-12    0.1862017795159487E-08
 -0.5577  -0.2158    0.5157368142969754E-01    0.5132230419752314E-02    0.2658809930424816E-04    0.3512268257799344E+00   -0.4741160394882752E+01   -0.2757225950325560E-05   -0.2170042340265965E-09    0.1254718551280121E-11    0.8983508381632532E-12    0.1667806434624275E-08
 -0.5628  -0.2391    0.4862801744446101E-01    0.3958695077375075E-02    0.2600789611674308E-04    0.3679425929963501E+00   -0.3658937948578333E+01   -0.2126414061406191E-05   -0.2514618444027228E-09   -0.1709826724649588E-11    0.9310469062384641E-12    0.1470778472970058E-08
 -0.5676  -0.2610    0.4401949980014939E-01    0.2910186139126907E-02    0.2419228163970090E-04    0.3847573382779032E+00   -0.2692171822768128E+01   -0.1562757497066996E-05   -0.2862520637192389E-09   -0.3930078484870592E-11    0.9629241848330139E-12    0.1273997123074633E-08
 -0.5720  -0.2812    0.3820427512166129E-01    0.2025343861479869E-02    0.2148386407986649E-04    0.4014418798617662E+00   -0.1876224066392333E+01   -0.1087124902613865E-05   -0.3190306005484977E-09   -0.5233605215870796E-11    0.9217904217706518E-12    0.1081784880424541E-08
 -0.5761  -0.2999    0.3166633111476932E-01    0.1319186775527402E-02    0.1823584223828180E-04    0.4177293076453031E+00   -0.1224882337340468E+01   -0.7075462112308264E-06   -0.3476201271279677E-09   -0.5633569999385912E-11    0.9314909954483142E-12    0.8968611495824286E-09
 -0.5797  -0.3167    0.2485819599623120E-01    0.7877472149849409E-03    0.1474167885404699E-04    0.4333173100682192E+00   -0.7344912619365180E+00   -0.4219546018462034E-06   -0.3707783177708812E-09   -0.5302596903233869E-11    0.9103412468292049E-12    0.7226458320630513E-09
 -0.5830  -0.3318    0.1816974106145538E-01    0.4145673455080013E-03    0.1118885454636366E-04    0.4478812366208061E+00   -0.3899506094281094E+00   -0.2214083773795320E-06   -0.3880845471371241E-09   -0.4498644512462846E-11    0.8842510057505137E-12    0.5623088279727018E-09
 -0.5859  -0.3450    0.1192006088916657E-01    0.1763304850104841E-03    0.7695902741024479E-05    0.4610980906533866E+00   -0.1696835987844367E+00   -0.9348828039663087E-07   -0.4000004633075704E-09   -0.3496841705086240E-11    0.8818085150963384E-12    0.4181547313270029E-09
 -0.5884  -0.3563    0.6361862463387830E-02    0.4607341863396031E-04    0.4371527336804668E-05    0.4726759710673165E+00   -0.4870852626497998E-01   -0.2359626967275587E-07   -0.4074945710724753E-09   -0.2557270367686826E-11    0.8738704204702685E-12    0.2929848490554332E-09
 -0.5904  -0.3655    0.1685832604770689E-02   -0.6106635243876010E-05    0.1478480427696736E-05    0.4823794709295431E+00    0.8901507682620511E-03    0.4117948162722431E-08   -0.4121081006829008E-09   -0.1848847464014369E-11    0.8841243709367674E-12    0.1889418968503698E-09
 -0.5920  -0.3728   -0.1982025360187504E-02   -0.1255086839880094E-04   -0.5448237083852194E-06    0.4900421501138540E+00    0.8953070882389823E-02    0.7267674446634241E-08   -0.4152991968332451E-09   -0.1438387603469593E-11    0.8589765183864007E-12    0.1067295188859896E-09
 -0.5931  -0.3780   -0.4588704110800571E-02   -0.4314327355327264E-05   -0.1106284466227411E-05    0.4955627477083908E+00    0.3747535882584460E-02    0.2319350657327231E-08   -0.4190250128214418E-09   -0.1208860702511805E-11    0.9276013117343052E-12    0.4736388776842293E-10
 -0.5938  -0.3811   -0.6144993251204709E-02   -0.1413502113594484E-06   -0.1415699064168983E-06    0.4988892869256053E+00    0.5892299988078508E-03    0.1213741158625123E-09   -0.4232566619237488E-09   -0.6551574604010679E-12    0.6409154890835156E-12    0.1198712309968819E-10
 -0.5940  -0.3822   -0.6664939895304050E-02    0.0000000000000000E+00    0.0000000000000000E+00    0.5000000000000000E+00   -0.1045973859096326E-03    0.0000000000000000E+00    0.0000000000000000E+00    0.0000000000000000E+00    0.0000000000000000E+00    0.0000000000000000E+00
 -0.3778   0.5942    0.2563118518874959E-01    0.0000000000000000E+00    0.0000000000000000E+00   -0.5000000000000000E+00   -0.4214568244330103E-02    0.0000000000000000E+00    0.0000000000000000E+00    0.0000000000000000E+00    0.0000000000000000E+00    0.0000000000000000E+00
 -0.3780   0.5931    0.2614742025466327E-01    0.1073550538418987E-05   -0.4261280651174204E-05   -0.4956983108365564E+00   -0.3900773642352105E-02   -0.2290845427079636E-08    0.7205816806958587E-09    0.6853311863320999E-12    0.8949801620292130E-12   -0.8731322847892187E-11
 -0.3787   0.5900    0.2767359894167623E-01    0.1316789804957608E-04   -0.1317063619357443E-04   -0.4828136905859217E+00   -0.3704205458648227E-02   -0.3183408992293784E-07    0.7219018603385474E-09    0.2071265034486736E-11    0.2187355114743883E-11   -0.3434053996026476E-10
 -0.3798   0.5848    0.3014314959449082E-01    0.4774489773650918E-04   -0.1706525485926268E-04   -0.4614196548224254E+00   -0.6618789987372730E-02   -0.1170125390618136E-06    0.7243528389946907E-09    0.2643405459801240E-11    0.2779923860551925E-11   -0.7736234743094261E-10
 -0.3814   0.5775    0.3343763887163542E-01    0.9559472234398869E-04   -0.1270040231085771E-04   -0.4316792300041131E+00   -0.1347731415640289E-01   -0.2309766415785910E-06    0.7271835893857270E-09    0.1837549210015332E-11    0.3117675388686347E-11   -0.1378064641566201E-09
 -0.3834   0.5682    0.3736790813017191E-01    0.1306222908583890E-03   -0.4138649634810653E-05   -0.3939037310266909E+00   -0.2009408516472851E-01   -0.3107960076357585E-06    0.7300142378617591E-09   -0.3475674609232371E-12    0.3297576187805129E-11   -0.2156791030494265E-09
 -0.3859   0.5570    0.4166899154073523E-01    0.1315617090008071E-03    0.3942660827764865E-05   -0.3486288785109703E+00   -0.2203514320963892E-01   -0.3082373985448969E-06    0.7326116417075840E-09   -0.3684998486908064E-11    0.3375334896565246E-11   -0.3119701059983715E-09
 -0.3888   0.5438    0.4601532951003914E-01    0.9642907771906876E-04    0.8286009636727929E-05   -0.2967017587160528E+00   -0.1856410154253790E-01   -0.2194728366552216E-06    0.7349000488016122E-09   -0.7709289803758956E-11    0.3341890566360695E-11   -0.4263476446886294E-09
 -0.3921   0.5287    0.5004530914345243E-01    0.4776973568839052E-04    0.6894644559668273E-05   -0.2393699414225107E+00   -0.1437986181253431E-01   -0.9424815785034343E-07    0.7371185354806964E-09   -0.1190934070111060E-10    0.3254487716645993E-11   -0.5572626041172590E-09