 title="result"
 variables="x","y","P","u","v","t","omega","psi","RES1","RES2","RES3","RES4"
zone,j= 49,i= 49,f=point
 -0.3851   0.5930    0.2518802826434621E-01    0.0000000000000000E+00    0.0000000000000000E+00   -0.5000000000000000E+00    0.0000000000000000E+00    0.0000000000000000E+00    0.0000000000000000E+00    0.0000000000000000E+00    0.0000000000000000E+00    0.0000000000000000E+00
 -0.3853   0.5920    0.2570784021823984E-01    0.0000000000000000E+00    0.0000000000000000E+00   -0.4957168628298197E+00   -0.6215198588771239E-04    0.0000000000000000E+00    0.0000000000000000E+00    0.0000000000000000E+00    0.0000000000000000E+00    0.0000000000000000E+00
 -0.3860   0.5888    0.2724116834146276E-01    0.0000000000000000E+00    0.0000000000000000E+00   -0.4828878154378533E+00   -0.4223414542529929E-02    0.0000000000000000E+00    0.0000000000000000E+00    0.0000000000000000E+00    0.0000000000000000E+00    0.0000000000000000E+00
 -0.3871   0.5836    0.2972845350503023E-01    0.0000000000000000E+00    0.0000000000000000E+00   -0.4615860111059356E+00   -0.1604570718668168E-01    0.0000000000000000E+00    0.0000000000000000E+00    0.0000000000000000E+00    0.0000000000000000E+00    0.0000000000000000E+00
 -0.3887   0.5764    0.3305963835454531E-01    0.0000000000000000E+00    0.0000000000000000E+00   -0.4319732954338666E+00   -0.2991147581914266E-01    0.0000000000000000E+00    0.0000000000000000E+00    0.0000000000000000E+00    0.0000000000000000E+00    0.0000000000000000E+00
 -0.3906   0.5671    0.3703892634474454E-01    0.0000000000000000E+00    0.0000000000000000E+00   -0.3943578358592502E+00   -0.3707931902266667E-01    0.0000000000000000E+00    0.0000000000000000E+00    0.0000000000000000E+00    0.0000000000000000E+00    0.0000000000000000E+00
 -0.3930   0.5558    0.4139304883826162E-01    0.0000000000000000E+00    0.0000000000000000E+00   -0.3492684229559829E+00   -0.3219857940174826E-01    0.0000000000000000E+00    0.0000000000000000E+00    0.0000000000000000E+00    0.0000000000000000E+00    0.0000000000000000E+00
 -0.3958   0.5426    0.4579042317797563E-01    0.0000000000000000E+00    0.0000000000000000E+00   -0.2975392489600516E+00   -0.1555656593703552E-01    0.0000000000000000E+00    0.0000000000000000E+00    0.0000000000000000E+00    0.0000000000000000E+00    0.0000000000000000E+00
 -0.3990   0.5275    0.4986594300135262E-01    0.0000000000000000E+00    0.0000000000000000E+00   -0.2403976257125408E+00    0.6237177119111178E-02    0.0000000000000000E+00    0.0000000000000000E+00    0.0000000000000000E+00    0.0000000000000000E+00    0.0000000000000000E+00
 -0.4026   0.5106    0.5325142915027972E-01    0.0000000000000000E+00    0.0000000000000000E+00   -0.1795396437141997E+00    0.2038739499863622E-01    0.0000000000000000E+00    0.0000000000000000E+00    0.0000000000000000E+00    0.0000000000000000E+00    0.0000000000000000E+00
 -0.4066   0.4920    0.5561290621792341E-01    0.0000000000000000E+00    0.0000000000000000E+00   -0.1171633276002855E+00    0.8629924497761374E-02    0.0000000000000000E+00    0.0000000000000000E+00    0.0000000000000000E+00    0.0000000000000000E+00    0.0000000000000000E+00
 -0.4109   0.4717    0.5669145183678077E-01    0.0000000000000000E+00    0.0000000000000000E+00   -0.5591101334348526E-01   -0.5046741037075841E-01    0.0000000000000000E+00    0.0000000000000000E+00    0.0000000000000000E+00    0.0000000000000000E+00    0.0000000000000000E+00
 -0.4156   0.4498    0.5633777273926826E-01    0.0000000000000000E+00    0.0000000000000000E+00    0.1335161386377362E-02   -0.1774766456784514E+00    0.0000000000000000E+00    0.0000000000000000E+00    0.0000000000000000E+00    0.0000000000000000E+00    0.0000000000000000E+00
 -0.4205   0.4264    0.5452883328156877E-01    0.0000000000000000E+00    0.0000000000000000E+00    0.5183839862634946E-01   -0.3879902171045488E+00    0.0000000000000000E+00    0.0000000000000000E+00    0.0000000000000000E+00    0.0000000000000000E+00    0.0000000000000000E+00
 -0.4258   0.4017    0.5136194935926688E-01    0.0000000000000000E+00    0.0000000000000000E+00    0.9353139690778589E-01   -0.6911416866923573E+00    0.0000000000000000E+00    0.0000000000000000E+00    0.0000000000000000E+00    0.0000000000000000E+00    0.0000000000000000E+00
 -0.4313   0.3757    0.4703221847505314E-01    0.0000000000000000E+00    0.0000000000000000E+00    0.1255172126496250E+00   -0.1091626334458462E+01    0.0000000000000000E+00    0.0000000000000000E+00    0.0000000000000000E+00    0.0000000000000000E+00    0.0000000000000000E+00
 -0.4371   0.3485    0.4180411554060189E-01    0.0000000000000000E+00    0.0000000000000000E+00    0.1483002894972501E+00   -0.1592901509593393E+01    0.0000000000000000E+00    0.0000000000000000E+00    0.0000000000000000E+00    0.0000000000000000E+00    0.0000000000000000E+00
 -0.4431   0.3203    0.3598588098864840E-01    0.0000000000000000E+00    0.0000000000000000E+00    0.1635735691621465E+00   -0.2198191936888052E+01    0.0000000000000000E+00    0.0000000000000000E+00    0.0000000000000000E+00    0.0000000000000000E+00    0.0000000000000000E+00
 -0.4493   0.2911    0.2991159333395320E-01    0.0000000000000000E+00    0.0000000000000000E+00    0.1736280495618441E+00   -0.2908158782386717E+01    0.0000000000000000E+00    0.0000000000000000E+00    0.0000000000000000E+00    0.0000000000000000E+00    0.0000000000000000E+00
 -0.4557   0.2612    0.2393192637250437E-01    0.0000000000000000E+00    0.0000000000000000E+00    0.1806809759788240E+00   -0.3716816034092049E+01    0.0000000000000000E+00    0.0000000000000000E+00    0.0000000000000000E+00    0.0000000000000000E+00    0.0000000000000000E+00
 -0.4622   0.2305    0.1840913851683176E-01    0.0000000000000000E+00    0.0000000000000000E+00    0.1864323014140969E+00   -0.4608166992275627E+01    0.0000000000000000E+00    0.0000000000000000E+00    0.0000000000000000E+00    0.0000000000000000E+00    0.0000000000000000E+00
 -0.4688   0.1994    0.1370779924410474E-01    0.0000000000000000E+00    0.0000000000000000E+00    0.1919594768892595E+00   -0.5555162419711705E+01    0.0000000000000000E+00    0.0000000000000000E+00    0.0000000000000000E+00    0.0000000000000000E+00    0.0000000000000000E+00
 -0.4755   0.1678    0.1017505795264585E-01    0.0000000000000000E+00    0.0000000000000000E+00    0.1978473942244234E+00   -0.6521190462100661E+01    0.0000000000000000E+00    0.0000000000000000E+00    0.0000000000000000E+00    0.0000000000000000E+00    0.0000000000000000E+00
 -0.4823   0.1359    0.8111012338175355E-02    0.0000000000000000E+00    0.0000000000000000E+00    0.2043830944131864E+00   -0.7463179553903827E+01    0.0000000000000000E+00    0.0000000000000000E+00    0.0000000000000000E+00    0.0000000000000000E+00    0.0000000000000000E+00
 -0.4891   0.1040    0.7735029951195292E-02    0.0000000000000000E+00    0.0000000000000000E+00    0.2117068320772797E+00   -0.8335005158344403E+01    0.0000000000000000E+00    0.0000000000000000E+00    0.0000000000000000E+00    0.0000000000000000E+00    0.0000000000000000E+00
 -0.4959   0.0720    0.9154339456654151E-02    0.0000000000000000E+00    0.0000000000000000E+00    0.2198957196870013E+00   -0.9090241972335349E+01    0.0000000000000000E+00    0.0000000000000000E+00    0.0000000000000000E+00    0.0000000000000000E+00    0.0000000000000000E+00
 -0.5026   0.0401    0.1233874077771154E-01    0.0000000000000000E+00    0.0000000000000000E+00    0.2289991925374205E+00   -0.9684106966661343E+01    0.0000000000000000E+00    0.0000000000000000E+00    0.0000000000000000E+00    0.0000000000000000E+00    0.0000000000000000E+00
 -0.5094   0.0085    0.1710327060986564E-01    0.0000000000000000E+00    0.0000000000000000E+00    0.2390499708248850E+00   -0.1007518948145930E+02    0.0000000000000000E+00    0.0000000000000000E+00    0.0000000000000000E+00    0.0000000000000000E+00    0.0000000000000000E+00
 -0.5160  -0.0226    0.2310133944169391E-01    0.0000000000000000E+00    0.0000000000000000E+00    0.2500650401382089E+00   -0.1022791973342067E+02    0.0000000000000000E+00    0.0000000000000000E+00    0.0000000000000000E+00    0.0000000000000000E+00    0.0000000000000000E+00
 -0.5225  -0.0533    0.2983346056389383E-01    0.0000000000000000E+00    0.0000000000000000E+00    0.2620432369848424E+00   -0.1011648990954605E+02    0.0000000000000000E+00    0.0000000000000000E+00    0.0000000000000000E+00    0.0000000000000000E+00    0.0000000000000000E+00
 -0.5289  -0.0832    0.3667878978209664E-01    0.0000000000000000E+00    0.0000000000000000E+00    0.2749621258513228E+00   -0.9730169917359433E+01    0.0000000000000000E+00    0.0000000000000000E+00    0.0000000000000000E+00    0.0000000000000000E+00    0.0000000000000000E+00
 -0.5351  -0.1124    0.4295482759004134E-01    0.0000000000000000E+00    0.0000000000000000E+00    0.2887754275594350E+00   -0.9078857192076280E+01    0.0000000000000000E+00    0.0000000000000000E+00    0.0000000000000000E+00    0.0000000000000000E+00    0.0000000000000000E+00
 -0.5411  -0.1406    0.4800306498316675E-01    0.0000000000000000E+00    0.0000000000000000E+00    0.3034116992577985E+00   -0.8196734485902551E+01    0.0000000000000000E+00    0.0000000000000000E+00    0.0000000000000000E+00    0.0000000000000000E+00    0.0000000000000000E+00
 -0.5468  -0.1678    0.5128635060003402E-01    0.0000000000000000E+00    0.0000000000000000E+00    0.3187744590733578E+00   -0.7141688664851418E+01    0.0000000000000000E+00    0.0000000000000000E+00    0.0000000000000000E+00    0.0000000000000000E+00    0.0000000000000000E+00
 -0.5524  -0.1938    0.5247338053002801E-01    0.0000000000000000E+00    0.0000000000000000E+00    0.3347432559086000E+00   -0.5989156384542115E+01    0.0000000000000000E+00    0.0000000000000000E+00    0.0000000000000000E+00    0.0000000000000000E+00    0.0000000000000000E+00
 -0.5576  -0.2185    0.5148433654022011E-01    0.0000000000000000E+00    0.0000000000000000E+00    0.3511744571317894E+00   -0.4821164295113268E+01    0.0000000000000000E+00    0.0000000000000000E+00    0.0000000000000000E+00    0.0000000000000000E+00    0.0000000000000000E+00
 -0.5626  -0.2419    0.4848327539741178E-01    0.0000000000000000E+00    0.0000000000000000E+00    0.3679002052623205E+00   -0.3713518019807862E+01    0.0000000000000000E+00    0.0000000000000000E+00    0.0000000000000000E+00    0.0000000000000000E+00    0.0000000000000000E+00
 -0.5672  -0.2637    0.4382244592499960E-01    0.0000000000000000E+00    0.0000000000000000E+00    0.3847246201974597E+00   -0.2725068126603752E+01    0.0000000000000000E+00    0.0000000000000000E+00    0.0000000000000000E+00    0.0000000000000000E+00    0.0000000000000000E+00
 -0.5715  -0.2841    0.3796067419565360E-01    0.0000000000000000E+00    0.0000000000000000E+00    0.4014181446413962E+00   -0.1892039195187957E+01    0.0000000000000000E+00    0.0000000000000000E+00    0.0000000000000000E+00    0.0000000000000000E+00    0.0000000000000000E+00
 -0.5755  -0.3027    0.3138306079857226E-01    0.0000000000000000E+00    0.0000000000000000E+00    0.4177134143639197E+00   -0.1228200828333450E+01    0.0000000000000000E+00    0.0000000000000000E+00    0.0000000000000000E+00    0.0000000000000000E+00    0.0000000000000000E+00
 -0.5791  -0.3196    0.2454200807240075E-01    0.0000000000000000E+00    0.0000000000000000E+00    0.4333077108116116E+00   -0.7293862738665267E+00    0.0000000000000000E+00    0.0000000000000000E+00    0.0000000000000000E+00    0.0000000000000000E+00    0.0000000000000000E+00
 -0.5823  -0.3347    0.1782638794418293E-01    0.0000000000000000E+00    0.0000000000000000E+00    0.4478761716508096E+00   -0.3797561728216489E+00    0.0000000000000000E+00    0.0000000000000000E+00    0.0000000000000000E+00    0.0000000000000000E+00    0.0000000000000000E+00
 -0.5851  -0.3479    0.1155405255603910E-01    0.0000000000000000E+00    0.0000000000000000E+00    0.4610958737474523E+00   -0.1571862978185466E+00    0.0000000000000000E+00    0.0000000000000000E+00    0.0000000000000000E+00    0.0000000000000000E+00    0.0000000000000000E+00
 -0.5875  -0.3592    0.5976693358162438E-02    0.0000000000000000E+00    0.0000000000000000E+00    0.4726752500627782E+00   -0.3634505978372608E-01    0.0000000000000000E+00    0.0000000000000000E+00    0.0000000000000000E+00    0.0000000000000000E+00    0.0000000000000000E+00
 -0.5895  -0.3685    0.1284957129452834E-02    0.0000000000000000E+00    0.0000000000000000E+00    0.4823793584383249E+00    0.1073962116627477E-01    0.0000000000000000E+00    0.0000000000000000E+00    0.0000000000000000E+00    0.0000000000000000E+00    0.0000000000000000E+00
 -0.5910  -0.3757   -0.2393666833892135E-02    0.0000000000000000E+00    0.0000000000000000E+00    0.4900421924302468E+00    0.1435041332545190E-01    0.0000000000000000E+00    0.0000000000000000E+00    0.0000000000000000E+00    0.0000000000000000E+00    0.0000000000000000E+00
 -0.5921  -0.3809   -0.5003157941725727E-02    0.0000000000000000E+00    0.0000000000000000E+00    0.4955627849288238E+00    0.4371324626337942E-02    0.0000000000000000E+00    0.0000000000000000E+00    0.0000000000000000E+00    0.0000000000000000E+00    0.0000000000000000E+00
 -0.5928  -0.3841   -0.6558845132655922E-02    0.0000000000000000E+00    0.0000000000000000E+00    0.4988892972806980E+00   -0.1065523081763479E-03    0.0000000000000000E+00    0.0000000000000000E+00    0.0000000000000000E+00    0.0000000000000000E+00    0.0000000000000000E+00
 -0.5930  -0.3851   -0.7079289700454867E-02    0.0000000000000000E+00    0.0000000000000000E+00    0.5000000000000000E+00    0.0000000000000000E+00    0.0000000000000000E+00    0.0000000000000000E+00    0.0000000000000000E+00    0.0000000000000000E+00    0.0000000000000000E+00
 -0.3841   0.5928    0.2530083082416938E-01    0.0000000000000000E+00    0.0000000000000000E+00   -0.5000000000000000E+00   -0.6232084311754282E-04    0.0000000000000000E+00    0.0000000000000000E+00    0.0000000000000000E+00    0.0000000000000000E+00    0.0000000000000000E+00
 -0.3843   0.5918    0.2582016750774407E-01    0.2020103952451166E-06   -0.2021034709514076E-06   -0.4957167614866416E+00   -0.5479778964038362E-03   -0.1363821512556699E-09    0.9907691545440675E-09    0.3297408461729046E-12    0.2945790313069185E-12   -0.8742453592655575E-11
 -0.3850   0.5886    0.2735302945026580E-01    0.4230422595004771E-05   -0.1055326851310593E-05   -0.4828874088850156E+00   -0.3828196799851339E-02   -0.2281040407934392E-08    0.9929444345739558E-09    0.6038182107093171E-12    0.4383863064227889E-12   -0.3542886426941005E-10
 -0.3861   0.5834    0.2983695928807225E-01    0.1550815242953426E-04   -0.1209997027971701E-05   -0.4615850914655273E+00   -0.1294507412325018E-01   -0.8624948250243584E-08    0.9955820716445185E-09    0.6001301885993904E-12    0.4259960439956245E-12   -0.7936642055367260E-10
 -0.3876   0.5761    0.3315950835170459E-01    0.2917555974898310E-04   -0.7616012166400924E-06   -0.4319716560038349E+00   -0.2464056280840075E-01   -0.1609481064147066E-07    0.9985968096263426E-09    0.2495243595079799E-12    0.4758723796960407E-12   -0.1409924434148113E-09
 -0.3896   0.5669    0.3712717158973086E-01    0.3651580717095006E-04   -0.9286101696871544E-07   -0.3943552795085720E+00   -0.3116990607371546E-01   -0.2011710524414780E-07    0.1001999046072472E-08   -0.6096824434198567E-12    0.4899479259801165E-12   -0.2204227321500607E-09
 -0.3920   0.5556    0.4146842919891366E-01    0.3186211100193281E-04    0.4902622716899863E-06   -0.3492647639814671E+00   -0.2737649160924745E-01   -0.1750149679007621E-07    0.1005168339296598E-08   -0.2009777760880738E-11    0.5148572540525365E-12   -0.3144273973132439E-09
 -0.3948   0.5424    0.4585288076652621E-01    0.1543303421691836E-04    0.7819740609303503E-06   -0.2975343155464271E+00   -0.1332598684566517E-01   -0.8480685598107041E-08    0.1007623946737077E-08   -0.3830713524166640E-11    0.4937252863490560E-12   -0.4206334655587618E-09
 -0.3980   0.5273    0.4991623903250293E-01   -0.5879478579478306E-05    0.6723121867207903E-06   -0.2403912764104549E+00    0.4683901809059967E-02    0.3300060714797373E-08    0.1009049219831068E-08   -0.5870887977155181E-11    0.5131199284913457E-12   -0.5321128537794095E-09
 -0.4016   0.5104    0.5329103979762087E-01   -0.1861200372855514E-04    0.9573988001154443E-07   -0.1795318071691555E+00    0.1432014478887476E-01    0.1053312524455656E-07    0.1009467403195524E-08   -0.7909745775025456E-11    0.4759506946682779E-12   -0.6366426760773258E-09
 -0.4056   0.4917    0.5564384005323514E-01   -0.3509460250616733E-05   -0.9578691983865939E-06   -0.1171540649254710E+00   -0.2142621331845372E-02    0.2905788738232860E-08    0.1008945997062194E-08   -0.9769768327672068E-11    0.4589913518704414E-12   -0.7151255559945113E-09
 -0.4099   0.4714    0.5671599337530294E-01    0.6205547775219234E-04   -0.2423053351427487E-05   -0.5590059094991118E-01   -0.6553071374672735E-01   -0.3178748797143705E-07    0.1007353632800911E-08   -0.1135001814756009E-10    0.4075888931920346E-12   -0.7411516678157426E-09
 -0.4145   0.4496    0.5635811411538083E-01    0.1998498636191269E-03   -0.4152091628233294E-05    0.1346216936288668E-02   -0.1959479719680250E+00   -0.1052133492430273E-06    0.1003825595563557E-08   -0.1262149412761815E-10    0.3936469206156090E-12   -0.6825099513330102E-09
 -0.4195   0.4262    0.5454692616938298E-01    0.4264450719236308E-03   -0.5971012665228484E-05    0.5184931244778734E-01   -0.4087538617986533E+00   -0.2262880862874589E-06    0.9964016330771264E-09   -0.1360312557041610E-10    0.3373967771835851E-12   -0.5068236524907732E-09
 -0.4247   0.4015    0.5137959130356243E-01    0.7516159776618309E-03   -0.7756788253862621E-05    0.9354127384836040E-01   -0.7130848585026497E+00   -0.4002248421772083E-06    0.9819003422839589E-09   -0.1430325996532034E-10    0.2950278910063275E-12   -0.1925619108611443E-09
 -0.4303   0.3754    0.4705126264126946E-01    0.1180399028006314E-02   -0.9479697886074603E-05    0.1255252763459354E+00   -0.1113651625916114E+01   -0.6297338031843090E-06    0.9564336371503668E-09   -0.1469638993834010E-10    0.2122954589900417E-12    0.2583082567286787E-09
 -0.4360   0.3483    0.4182641629495800E-01    0.1716401717831804E-02   -0.1116472927787350E-04    0.1483061297351136E+00   -0.1613740967308522E+01   -0.9167499377046711E-06    0.9161534586521469E-09   -0.1472227201260168E-10    0.1101549407245273E-12    0.8132666901028429E-09
 -0.4420   0.3200    0.3601295516623083E-01    0.2362835961131485E-02   -0.1281960290724859E-04    0.1635772480552991E+00   -0.2216125315237302E+01   -0.1263045156947924E-05    0.8584563164493186E-09   -0.1426994633568768E-10    0.1033895191682177E-13    0.1413251106419100E-08
 -0.4482   0.2909    0.2994413349808598E-01    0.3120062497876097E-02   -0.1438221044816267E-04    0.1736299981983287E+00   -0.2920818598851134E+01   -0.1668866802390911E-05    0.7826371425934120E-09   -0.1320268200322161E-10   -0.7750744490664374E-13    0.1991313537674788E-08
 -0.4546   0.2609    0.2396949382843009E-01    0.3981307208226562E-02   -0.1572271826388910E-04    0.1806817617139174E+00   -0.3721149024259956E+01   -0.2130659481569271E-05    0.6901981139395552E-09   -0.1130686343164822E-10   -0.1894456813644751E-12    0.2491713781485605E-08
 -0.4611   0.2303    0.1845010183492491E-01    0.4929158192160580E-02   -0.1667703127426882E-04    0.1864324179149315E+00   -0.4600584472151436E+01   -0.2639150918584191E-05    0.5846363532180376E-09   -0.8349269192686748E-11   -0.3112787805292783E-12    0.2883737449055563E-08
 -0.4677   0.1991    0.1374954144885032E-01    0.5934533443610880E-02   -0.1709283714813325E-04    0.1919592507034678E+00   -0.5531842595697148E+01   -0.3178798371467192E-05    0.4709478779174603E-09   -0.4071173953512641E-11   -0.4069106163129277E-12    0.3161244115004042E-08
 -0.4745   0.1676    0.1021427839759021E-01    0.6958324523450289E-02   -0.1685826777228875E-04    0.1978469970886578E+00   -0.6478472255055457E+01   -0.3728653147397689E-05    0.3552602101386526E-09    0.1648250980146315E-11   -0.4920369667260616E-12    0.3335111606588698E-08
 -0.4812   0.1357    0.8144052840578522E-02    0.7954727375137584E-02   -0.1591222617541812E-04    0.2043825987968497E+00   -0.7397974413593579E+01   -0.4264141544432470E-05    0.2443333486923382E-09    0.8742229162805870E-11   -0.5269673586383306E-12    0.3422950027587301E-08
 -0.4880   0.1037    0.7758086106133505E-02    0.8874868771476306E-02   -0.1423149784805814E-04    0.2117062612997927E+00   -0.8245166695446150E+01   -0.4759016523691466E-05    0.1449975799150405E-09    0.1691954909510685E-10   -0.5341144193593550E-12    0.3443086028093179E-08
 -0.4948   0.0717    0.9163593320412371E-02    0.9669722051784806E-02   -0.1181518484596634E-04    0.2198950775306635E+00   -0.8974883956774127E+01   -0.5186910512042720E-05    0.6332718030521711E-10    0.2562422496410477E-10   -0.5066849717572097E-12    0.3410734490845446E-08
 -0.5016   0.0399    0.1233040365067254E-01    0.1029216070200907E-01   -0.8671554700855028E-05    0.2289984768104713E+00   -0.9543864212062655E+01   -0.5522459250016523E-05    0.3997122077770143E-11    0.3416955607349337E-10   -0.4531860997580850E-12    0.3337445162246433E-08
 -0.5083   0.0083    0.1707367803405187E-01    0.1069878650011196E-01   -0.4825526058625221E-05    0.2390491786965040E+00   -0.9912443879214132E+01   -0.5742258150878134E-05   -0.3046387447858123E-10    0.4176214929429989E-10   -0.3287890792957882E-12    0.3232755818247113E-08
 -0.5149  -0.0228    0.2304713075228564E-01    0.1085253196642672E-01   -0.3395196885040558E-06    0.2500641701552566E+00   -0.1004693932733343E+02   -0.5826295945564891E-05   -0.4028806259957773E-10    0.4764255656652949E-10   -0.1606692209832339E-12    0.3103061724241130E-08
 -0.5214  -0.0535    0.2975195895810132E-01    0.1072677467190106E-01    0.4649620186343372E-05    0.2620422897896972E+00   -0.9923426718932033E+01   -0.5760131077501275E-05   -0.2857047584625683E-10    0.5112521517247615E-10    0.3953434801751143E-13    0.2953446175124608E-08
 -0.5278  -0.0834    0.3656850342627972E-01    0.1031088474559274E-01    0.9902065972394578E-05    0.2749611041392641E+00   -0.9532773128098883E+01   -0.5537935333609900E-05   -0.1168020541397752E-11    0.5175304629290167E-10    0.2317174230270780E-12    0.2787730423239876E-08
 -0.5340  -0.1126    0.4281602643805863E-01    0.9615974809382380E-02    0.1506361124502317E-04    0.2887743353117519E+00   -0.8885848587109198E+01   -0.5165548326779353E-05    0.3415051921806800E-10    0.4934463948558232E-10    0.4558436961232815E-12    0.2609139553716444E-08
 -0.5400  -0.1408    0.4783816985957765E-01    0.8678630311172487E-02    0.1969934356444256E-04    0.3034105403118619E+00   -0.8016813886171111E+01   -0.4662574255481941E-05    0.6889743636717682E-10    0.4412803455977610E-10    0.6756678549990625E-12    0.2419819780316579E-08
 -0.5458  -0.1680    0.5109999792285051E-01    0.7560188635336767E-02    0.2336411547471111E-04    0.3187732354008397E+00   -0.6982381546075408E+01   -0.4061935582992694E-05    0.9560141567277469E-10    0.3674588411328727E-10    0.7976674876175593E-12    0.2222272890012311E-08
 -0.5513  -0.1940    0.5227195900179774E-01    0.6340212217814842E-02    0.2570515335874767E-04    0.3347419664165232E+00   -0.5855745083091523E+01   -0.3406458836288966E-05    0.1092569645866348E-09    0.2811262334034836E-10    0.9336559303463332E-12    0.2017938951354159E-08
 -0.5566  -0.2187    0.5127513773351373E-01    0.5104985982079350E-02    0.2654601136239034E-04    0.3511730981277542E+00   -0.4716085924388438E+01   -0.2742571527596559E-05    0.1082095940629912E-09    0.1930999804500289E-10    0.1029398788432445E-11    0.1809093026425290E-08
 -0.5615  -0.2421    0.4827340443053473E-01    0.3934133165390002E-02    0.2593018059062333E-04    0.3678987736315388E+00   -0.3636337763919710E+01   -0.2113201364926306E-05    0.9411221107979983E-10    0.1132829940964086E-10    0.1092889667653196E-11    0.1598080360751264E-08
 -0.5662  -0.2640    0.4361792192236463E-01    0.2889427295455061E-02    0.2408858053401225E-04    0.3847231195362290E+00   -0.2673069521533293E+01   -0.1551590971117808E-05    0.7092212234161011E-10    0.4879457948803179E-11    0.1071712163458471E-11    0.1387708892242046E-08
 -0.5705  -0.2843    0.3776586463348445E-01    0.2008897234430423E-02    0.2136571346221560E-04    0.4014165930835740E+00   -0.1861084241222898E+01   -0.1078278883609432E-05    0.4347944226879008E-10    0.2854383396311277E-12    0.1047134601250832E-11    0.1181489142632053E-08
 -0.5745  -0.3029    0.3120066532848475E-01    0.1307013549701136E-02    0.1811428879308914E-04    0.4177118511140979E+00   -0.1213668056462424E+01   -0.7010003692638349E-06    0.1620299727722596E-10   -0.2487197947598219E-11    0.1030966978454728E-11    0.9819556296558618E-09
 -0.5781  -0.3198    0.2437334918533121E-01    0.7794053036990580E-03    0.1462599388471034E-04    0.4333061974754864E+00   -0.7267961680603218E+00   -0.4174706794829600E-06   -0.7760566494985355E-11   -0.3729919151318484E-11    0.9934414402223979E-12    0.7924377959378504E-09
 -0.5813  -0.3349    0.1767195117420366E-01    0.4093738956794909E-03    0.1108606236338813E-04    0.4478747853453109E+00   -0.3851467278981345E+00   -0.2186193981980690E-06   -0.2668609083711360E-10   -0.3875861437352413E-11    0.9648393195504923E-12    0.6177806113893958E-09
 -0.5841  -0.3481    0.1141380410951529E-01    0.1735004932653483E-03    0.7611494257809047E-05    0.4610946918998486E+00   -0.1670491144429116E+00   -0.9197136316807164E-07   -0.4029210992628762E-10   -0.3384726526833859E-11    0.9472977957614148E-12    0.4598666083349690E-09
 -0.5865  -0.3594    0.5850107314239210E-02    0.4482275073177860E-04    0.4309621199706577E-05    0.4726743307753901E+00   -0.4752280579448864E-01   -0.2293001956996615E-07   -0.4916662042775410E-10   -0.2659775177882295E-11    0.9279556290042734E-12    0.3226858780180919E-09
 -0.5884  -0.3687    0.1170332450294124E-02   -0.6477779418139753E-05    0.1441909273954836E-05    0.4823787234503700E+00    0.1266867639598039E-02    0.4311524752350063E-08   -0.5472411889959061E-10   -0.2002752130803032E-11    0.9521342048124382E-12    0.2079372802415991E-09
 -0.5900  -0.3759   -0.2500392336180325E-02   -0.1257696183950970E-04   -0.5574093122168466E-06    0.4900418200789348E+00    0.9005131092157377E-02    0.7276483629934676E-08   -0.5846113176888323E-10   -0.1562531354304397E-11    0.9237959789493155E-12    0.1177001079065432E-09
 -0.5911  -0.3812   -0.5109463660046269E-02   -0.4292244386343956E-05   -0.1102980936539605E-05    0.4955626168310839E+00    0.3738138687608189E-02    0.2306034057354624E-08   -0.6252232260563206E-10   -0.1302570898364941E-11    0.9823669655517620E-12    0.5248464358433014E-10
 -0.5918  -0.3843   -0.6667467452331553E-02   -0.1393975628714684E-06   -0.1396207166687117E-06    0.4988892551194571E+00    0.5854233851370904E-03    0.1197869996105855E-09   -0.6702481245794006E-10   -0.6741923642625269E-12    0.6786038744821532E-12    0.1292651023113850E-10
 -0.5920  -0.3853   -0.7188036223122756E-02    0.0000000000000000E+00    0.0000000000000000E+00    0.5000000000000000E+00   -0.1060187258865712E-03    0.0000000000000000E+00    0.0000000000000000E+00    0.0000000000000000E+00    0.0000000000000000E+00    0.0000000000000000E+00
 -0.3809   0.5921    0.2563580487445938E-01    0.0000000000000000E+00    0.0000000000000000E+00   -0.5000000000000000E+00   -0.4222944924395975E-02    0.0000000000000000E+00    0.0000000000000000E+00    0.0000000000000000E+00    0.0000000000000000E+00    0.0000000000000000E+00
 -0.3812   0.5911    0.2615275357589712E-01    0.1054769363052153E-05   -0.4229766512659384E-05   -0.4957152529288671E+00   -0.3827369383122709E-02   -0.2280692400163739E-08    0.9926915778106504E-09    0.4267769135053029E-12    0.5430237422915374E-12   -0.8847535442994825E-11
 -0.3818   0.5880    0.2768133238028202E-01    0.1276307263520058E-04   -0.1276571106940274E-04   -0.4828813676370908E+00   -0.3408486031313108E-02   -0.3119539997182828E-07    0.9935942095126715E-09    0.1342989738514766E-11    0.1352737149726280E-11   -0.3551141455546136E-10
 -0.3829   0.5827    0.3015532462887311E-01    0.4529728875227342E-04   -0.1586266019301238E-04   -0.4615714590232005E+00   -0.5841795518360870E-02   -0.1120600079279910E-06    0.9955348004297981E-09    0.1598238902333904E-11    0.1844476394535777E-11   -0.7968322182638765E-10
 -0.3845   0.5755    0.3345575567248520E-01    0.8762655117667805E-04   -0.1067873833795640E-04   -0.4319473645809693E+00   -0.1159233128751445E-01   -0.2137879141573368E-06    0.9982425346402590E-09    0.4306763279338099E-12    0.2252835938632014E-11   -0.1413310284775759E-09
 -0.3865   0.5662    0.3739182217803367E-01    0.1127509134452679E-03   -0.1610479216685536E-05   -0.3943173278410244E+00   -0.1620809433952634E-01   -0.2715877448142227E-06    0.1001384192147320E-08   -0.2675828308928985E-11    0.2567447773479947E-11   -0.2200789168960160E-09
 -0.3888   0.5549    0.4169670386046003E-01    0.1001607608308826E-03    0.6532483958726401E-05   -0.3492102688682339E+00   -0.1534396339280107E-01   -0.2390866135051738E-06    0.1004441826154417E-08   -0.7821434472310429E-11    0.2761272547419091E-11   -0.3143818400053178E-09
 -0.3917   0.5417    0.4604368508222054E-01    0.5008666464906410E-04    0.1050976811325063E-04   -0.2974606064263043E+00   -0.8699032875944162E-02   -0.1174457670635592E-06    0.1006911352040285E-08   -0.1461113001421932E-10    0.2822337849539558E-11   -0.4207180992477078E-09
 -0.3949   0.5266    0.5007120482698085E-01   -0.1193826379636974E-04    0.8434361790957770E-05   -0.2402962066784307E+00   -0.1605604289621469E-02    0.3699982190176022E-07    0.1008474077249938E-08   -0.2229479535015289E-10    0.2726069803921094E-11   -0.5322010609987160E-09