 title="result"
 variables="x","y","P","u","v","t","omega","psi","RES1","RES2","RES3","RES4"
zone,j= 49,i= 49,f=point
 -0.5000   0.5000    0.2250692839829140E-01    0.0000000000000000E+00    0.0000000000000000E+00   -0.5000000000000000E+00    0.0000000000000000E+00    0.0000000000000000E+00    0.0000000000000000E+00    0.0000000000000000E+00    0.0000000000000000E+00    0.0000000000000000E+00
 -0.5000   0.4989    0.2303743875652216E-01    0.0000000000000000E+00    0.0000000000000000E+00   -0.4963814788793942E+00   -0.3790190661940826E-03    0.0000000000000000E+00    0.0000000000000000E+00    0.0000000000000000E+00    0.0000000000000000E+00    0.0000000000000000E+00
 -0.5000   0.4957    0.2462504398181191E-01    0.0000000000000000E+00    0.0000000000000000E+00   -0.4855427482796743E+00   -0.4651556060917696E-02    0.0000000000000000E+00    0.0000000000000000E+00    0.0000000000000000E+00    0.0000000000000000E+00    0.0000000000000000E+00
 -0.5000   0.4904    0.2723849471104034E-01    0.0000000000000000E+00    0.0000000000000000E+00   -0.4675419916534669E+00   -0.1011127310263626E-02    0.0000000000000000E+00    0.0000000000000000E+00    0.0000000000000000E+00    0.0000000000000000E+00    0.0000000000000000E+00
 -0.5000   0.4830    0.3074305132276781E-01    0.0000000000000000E+00    0.0000000000000000E+00   -0.4424989640704094E+00    0.3560039695191368E-01    0.0000000000000000E+00    0.0000000000000000E+00    0.0000000000000000E+00    0.0000000000000000E+00    0.0000000000000000E+00
 -0.5000   0.4735    0.3487646956244822E-01    0.0000000000000000E+00    0.0000000000000000E+00   -0.4106176752772542E+00    0.1214037781472047E+00    0.0000000000000000E+00    0.0000000000000000E+00    0.0000000000000000E+00    0.0000000000000000E+00    0.0000000000000000E+00
 -0.5000   0.4619    0.3929877112464628E-01    0.0000000000000000E+00    0.0000000000000000E+00   -0.3722001516922158E+00    0.2545143259227124E+00    0.0000000000000000E+00    0.0000000000000000E+00    0.0000000000000000E+00    0.0000000000000000E+00    0.0000000000000000E+00
 -0.5000   0.4484    0.4363771669861700E-01    0.0000000000000000E+00    0.0000000000000000E+00   -0.3276545389089790E+00    0.4148438676279720E+00    0.0000000000000000E+00    0.0000000000000000E+00    0.0000000000000000E+00    0.0000000000000000E+00    0.0000000000000000E+00
 -0.5000   0.4330    0.4753384988077898E-01    0.0000000000000000E+00    0.0000000000000000E+00   -0.2775234425268011E+00    0.5684826177567055E+00    0.0000000000000000E+00    0.0000000000000000E+00    0.0000000000000000E+00    0.0000000000000000E+00    0.0000000000000000E+00
 -0.5000   0.4157    0.5067456901162524E-01    0.0000000000000000E+00    0.0000000000000000E+00   -0.2225699492608098E+00    0.6755821255049806E+00    0.0000000000000000E+00    0.0000000000000000E+00    0.0000000000000000E+00    0.0000000000000000E+00    0.0000000000000000E+00
 -0.5000   0.3967    0.5281555602973427E-01    0.0000000000000000E+00    0.0000000000000000E+00   -0.1639429625709998E+00    0.7000658868827538E+00    0.0000000000000000E+00    0.0000000000000000E+00    0.0000000000000000E+00    0.0000000000000000E+00    0.0000000000000000E+00
 -0.5000   0.3759    0.5378371321958813E-01    0.0000000000000000E+00    0.0000000000000000E+00   -0.1033914305839969E+00    0.6184736337929584E+00    0.0000000000000000E+00    0.0000000000000000E+00    0.0000000000000000E+00    0.0000000000000000E+00    0.0000000000000000E+00
 -0.5000   0.3536    0.5347046243746514E-01    0.0000000000000000E+00    0.0000000000000000E+00   -0.4341237602186717E-01    0.4238506665501968E+00    0.0000000000000000E+00    0.0000000000000000E+00    0.0000000000000000E+00    0.0000000000000000E+00    0.0000000000000000E+00
 -0.5000   0.3297    0.5182950496212479E-01    0.0000000000000000E+00    0.0000000000000000E+00    0.1285871033274869E-01    0.1225792843029212E+00    0.0000000000000000E+00    0.0000000000000000E+00    0.0000000000000000E+00    0.0000000000000000E+00    0.0000000000000000E+00
 -0.5000   0.3044    0.4889071776602258E-01    0.0000000000000000E+00    0.0000000000000000E+00    0.6217521592181034E-01   -0.2739276680203093E+00    0.0000000000000000E+00    0.0000000000000000E+00    0.0000000000000000E+00    0.0000000000000000E+00    0.0000000000000000E+00
 -0.5000   0.2778    0.4478042468005401E-01    0.0000000000000000E+00    0.0000000000000000E+00    0.1020559364823705E+00   -0.7572235226415518E+00    0.0000000000000000E+00    0.0000000000000000E+00    0.0000000000000000E+00    0.0000000000000000E+00    0.0000000000000000E+00
 -0.5000   0.2500    0.3972677249422359E-01    0.0000000000000000E+00    0.0000000000000000E+00    0.1316093547734250E+00   -0.1325145307814030E+01    0.0000000000000000E+00    0.0000000000000000E+00    0.0000000000000000E+00    0.0000000000000000E+00    0.0000000000000000E+00
 -0.5000   0.2211    0.3403876488720105E-01    0.0000000000000000E+00    0.0000000000000000E+00    0.1517869951235232E+00   -0.1979938957254650E+01    0.0000000000000000E+00    0.0000000000000000E+00    0.0000000000000000E+00    0.0000000000000000E+00    0.0000000000000000E+00
 -0.5000   0.1913    0.2807267655114522E-01    0.0000000000000000E+00    0.0000000000000000E+00    0.1648714914978673E+00   -0.2723375047439702E+01    0.0000000000000000E+00    0.0000000000000000E+00    0.0000000000000000E+00    0.0000000000000000E+00    0.0000000000000000E+00
 -0.5000   0.1607    0.2220527886709946E-01    0.0000000000000000E+00    0.0000000000000000E+00    0.1735351472670325E+00   -0.3550986530157506E+01    0.0000000000000000E+00    0.0000000000000000E+00    0.0000000000000000E+00    0.0000000000000000E+00    0.0000000000000000E+00
 -0.5000   0.1294    0.1681887436699521E-01    0.0000000000000000E+00    0.0000000000000000E+00    0.1800374068548088E+00   -0.4447380615511877E+01    0.0000000000000000E+00    0.0000000000000000E+00    0.0000000000000000E+00    0.0000000000000000E+00    0.0000000000000000E+00
 -0.5000   0.0975    0.1228733256796952E-01    0.0000000000000000E+00    0.0000000000000000E+00    0.1858917673762182E+00   -0.5384347311819442E+01    0.0000000000000000E+00    0.0000000000000000E+00    0.0000000000000000E+00    0.0000000000000000E+00    0.0000000000000000E+00
 -0.5000   0.0653    0.8953085302430079E-02    0.0000000000000000E+00    0.0000000000000000E+00    0.1919417057560638E+00   -0.6322362558424417E+01    0.0000000000000000E+00    0.0000000000000000E+00    0.0000000000000000E+00    0.0000000000000000E+00    0.0000000000000000E+00
 -0.5000   0.0327    0.7093664453051645E-02    0.0000000000000000E+00    0.0000000000000000E+00    0.1985990429953463E+00   -0.7214413838166643E+01    0.0000000000000000E+00    0.0000000000000000E+00    0.0000000000000000E+00    0.0000000000000000E+00    0.0000000000000000E+00
 -0.5000   0.0000    0.6884473827306967E-02    0.0000000000000000E+00    0.0000000000000000E+00    0.2060552415564817E+00   -0.8010490857269435E+01    0.0000000000000000E+00    0.0000000000000000E+00    0.0000000000000000E+00    0.0000000000000000E+00    0.0000000000000000E+00
 -0.5000  -0.0327    0.8365597164416023E-02    0.0000000000000000E+00    0.0000000000000000E+00    0.2144059797009984E+00   -0.8661544936769603E+01    0.0000000000000000E+00    0.0000000000000000E+00    0.0000000000000000E+00    0.0000000000000000E+00    0.0000000000000000E+00
 -0.5000  -0.0653    0.1141873782758899E-01    0.0000000000000000E+00    0.0000000000000000E+00    0.2237065424296047E+00   -0.9122745750837904E+01    0.0000000000000000E+00    0.0000000000000000E+00    0.0000000000000000E+00    0.0000000000000000E+00    0.0000000000000000E+00
 -0.5000  -0.0975    0.1575800429057865E-01    0.0000000000000000E+00    0.0000000000000000E+00    0.2339904374178880E+00   -0.9356558888655151E+01    0.0000000000000000E+00    0.0000000000000000E+00    0.0000000000000000E+00    0.0000000000000000E+00    0.0000000000000000E+00
 -0.5000  -0.1294    0.2093857038996448E-01    0.0000000000000000E+00    0.0000000000000000E+00    0.2452728523302559E+00   -0.9336361374616386E+01    0.0000000000000000E+00    0.0000000000000000E+00    0.0000000000000000E+00    0.0000000000000000E+00    0.0000000000000000E+00
 -0.5000  -0.1607    0.2638763796532625E-01    0.0000000000000000E+00    0.0000000000000000E+00    0.2575491104742796E+00   -0.9050774845412088E+01    0.0000000000000000E+00    0.0000000000000000E+00    0.0000000000000000E+00    0.0000000000000000E+00    0.0000000000000000E+00
 -0.5000  -0.1913    0.3146100418555071E-01    0.0000000000000000E+00    0.0000000000000000E+00    0.2707921926137285E+00   -0.8508035867098853E+01    0.0000000000000000E+00    0.0000000000000000E+00    0.0000000000000000E+00    0.0000000000000000E+00    0.0000000000000000E+00
 -0.5000  -0.2211    0.3552258594085161E-01    0.0000000000000000E+00    0.0000000000000000E+00    0.2849509544579439E+00   -0.7738802711945414E+01    0.0000000000000000E+00    0.0000000000000000E+00    0.0000000000000000E+00    0.0000000000000000E+00    0.0000000000000000E+00
 -0.5000  -0.2500    0.3803507141255140E-01    0.0000000000000000E+00    0.0000000000000000E+00    0.2999496313855703E+00   -0.6795538227612525E+01    0.0000000000000000E+00    0.0000000000000000E+00    0.0000000000000000E+00    0.0000000000000000E+00    0.0000000000000000E+00
 -0.5000  -0.2778    0.3864089979559435E-01    0.0000000000000000E+00    0.0000000000000000E+00    0.3156884487135945E+00   -0.5747255315413780E+01    0.0000000000000000E+00    0.0000000000000000E+00    0.0000000000000000E+00    0.0000000000000000E+00    0.0000000000000000E+00
 -0.5000  -0.3044    0.3721090466927246E-01    0.0000000000000000E+00    0.0000000000000000E+00    0.3320443873684484E+00   -0.4670073890247736E+01    0.0000000000000000E+00    0.0000000000000000E+00    0.0000000000000000E+00    0.0000000000000000E+00    0.0000000000000000E+00
 -0.5000  -0.3297    0.3384624859939123E-01    0.0000000000000000E+00    0.0000000000000000E+00    0.3488706334622284E+00   -0.3635834180912923E+01    0.0000000000000000E+00    0.0000000000000000E+00    0.0000000000000000E+00    0.0000000000000000E+00    0.0000000000000000E+00
 -0.5000  -0.3536    0.2883546362808576E-01    0.0000000000000000E+00    0.0000000000000000E+00    0.3659934516960295E+00   -0.2702053317765741E+01    0.0000000000000000E+00    0.0000000000000000E+00    0.0000000000000000E+00    0.0000000000000000E+00    0.0000000000000000E+00
 -0.5000  -0.3759    0.2258380866752305E-01    0.0000000000000000E+00    0.0000000000000000E+00    0.3832065398053185E+00   -0.1905972705942722E+01    0.0000000000000000E+00    0.0000000000000000E+00    0.0000000000000000E+00    0.0000000000000000E+00    0.0000000000000000E+00
 -0.5000  -0.3967    0.1553874441421249E-01    0.0000000000000000E+00    0.0000000000000000E+00    0.4002651569398090E+00   -0.1263761411418937E+01    0.0000000000000000E+00    0.0000000000000000E+00    0.0000000000000000E+00    0.0000000000000000E+00    0.0000000000000000E+00
 -0.5000  -0.4157    0.8131062825800268E-02    0.0000000000000000E+00    0.0000000000000000E+00    0.4168844104787943E+00   -0.7739568447352362E+00    0.0000000000000000E+00    0.0000000000000000E+00    0.0000000000000000E+00    0.0000000000000000E+00    0.0000000000000000E+00
 -0.5000  -0.4330    0.7402514319222132E-03    0.0000000000000000E+00    0.0000000000000000E+00    0.4327464187182593E+00   -0.4230571548406137E+00    0.0000000000000000E+00    0.0000000000000000E+00    0.0000000000000000E+00    0.0000000000000000E+00    0.0000000000000000E+00
 -0.5000  -0.4484   -0.6317629738251302E-02    0.0000000000000000E+00    0.0000000000000000E+00    0.4475185469828033E+00   -0.1910260413277168E+00    0.0000000000000000E+00    0.0000000000000000E+00    0.0000000000000000E+00    0.0000000000000000E+00    0.0000000000000000E+00
 -0.5000  -0.4619   -0.1278800709567755E-01    0.0000000000000000E+00    0.0000000000000000E+00    0.4608801525570996E+00   -0.5515681607551488E-01    0.0000000000000000E+00    0.0000000000000000E+00    0.0000000000000000E+00    0.0000000000000000E+00    0.0000000000000000E+00
 -0.5000  -0.4735   -0.1847097851857302E-01    0.0000000000000000E+00    0.0000000000000000E+00    0.4725506667611523E+00    0.8175028686778489E-02    0.0000000000000000E+00    0.0000000000000000E+00    0.0000000000000000E+00    0.0000000000000000E+00    0.0000000000000000E+00
 -0.5000  -0.4830   -0.2321799166796963E-01    0.0000000000000000E+00    0.0000000000000000E+00    0.4823101950034856E+00    0.2329485986676767E-01    0.0000000000000000E+00    0.0000000000000000E+00    0.0000000000000000E+00    0.0000000000000000E+00    0.0000000000000000E+00
 -0.5000  -0.4904   -0.2693364822451205E-01    0.0000000000000000E+00    0.0000000000000000E+00    0.4900064342050094E+00    0.1452970351385117E-01    0.0000000000000000E+00    0.0000000000000000E+00    0.0000000000000000E+00    0.0000000000000000E+00    0.0000000000000000E+00
 -0.5000  -0.4957   -0.2957996592953557E-01    0.0000000000000000E+00    0.0000000000000000E+00    0.4955474345350551E+00    0.3248561675605061E-02    0.0000000000000000E+00    0.0000000000000000E+00    0.0000000000000000E+00    0.0000000000000000E+00    0.0000000000000000E+00
 -0.5000  -0.4989   -0.3116778293782230E-01    0.0000000000000000E+00    0.0000000000000000E+00    0.4988854892851383E+00   -0.1586962167943738E-03    0.0000000000000000E+00    0.0000000000000000E+00    0.0000000000000000E+00    0.0000000000000000E+00    0.0000000000000000E+00
 -0.5000  -0.5000   -0.3170080868555088E-01    0.0000000000000000E+00    0.0000000000000000E+00    0.5000000000000000E+00    0.0000000000000000E+00    0.0000000000000000E+00    0.0000000000000000E+00    0.0000000000000000E+00    0.0000000000000000E+00    0.0000000000000000E+00
 -0.4989   0.5000    0.2250974916785592E-01    0.0000000000000000E+00    0.0000000000000000E+00   -0.5000000000000000E+00   -0.3789852406265556E-03    0.0000000000000000E+00    0.0000000000000000E+00    0.0000000000000000E+00    0.0000000000000000E+00    0.0000000000000000E+00
 -0.4989   0.4989    0.2304026007785776E-01    0.3624724066691464E-06   -0.3624843389670904E-06   -0.4963814116136945E+00   -0.5565678513624769E-03   -0.2580633587218261E-09   -0.5507449499708370E-09   -0.3099600112167755E-12   -0.3003222670550088E-12    0.6738294546903417E-11
 -0.4989   0.4957    0.2462595793563300E-01    0.3280221119272366E-05   -0.4432929972589163E-06   -0.4855424822421058E+00   -0.1414613361133199E-02   -0.2003795327843869E-08   -0.5528087742342341E-09   -0.5838125122226145E-12   -0.4470962784567691E-12    0.2547641806717460E-10
 -0.4989   0.4904    0.2723102997646229E-01   -0.2304576141990326E-05    0.1502801501093926E-05   -0.4675414181822323E+00    0.5477510510361683E-02    0.6165721385739087E-09   -0.5549763443940536E-09   -0.6535015584230308E-12   -0.4150733576291366E-12    0.5675017530556992E-10
 -0.4989   0.4830    0.3072338428078028E-01   -0.4103554794866304E-04    0.3969995827025632E-05   -0.4424980311457233E+00    0.4114565293490144E-01    0.2148494821624544E-07   -0.5572660119815276E-09   -0.6032084554075112E-12   -0.4439261458433208E-12    0.1014392120649021E-09
 -0.4989   0.4735    0.3484722932329141E-01   -0.1302650938473448E-03    0.5955913320749434E-05   -0.4106163916025761E+00    0.1220167504257044E+00    0.6966336241157468E-07   -0.5601734597016073E-09   -0.3415126254707745E-12   -0.4392181063295197E-12    0.1597514655282684E-09
 -0.4989   0.4619    0.3926527571819810E-01   -0.2687032832653881E-03    0.6795001696418070E-05   -0.3721985417607871E+00    0.2474813593730358E+00    0.1445163252361811E-06   -0.5637345815850958E-09    0.2008081201321232E-12   -0.4569261635722910E-12    0.2338501597226594E-09
 -0.4989   0.4484    0.4360641666698615E-01   -0.4357097380664121E-03    0.6360291483088236E-05   -0.3276525681600787E+00    0.3991369277150134E+00    0.2347035288811477E-06   -0.5680277029990188E-09    0.1079962508310217E-11   -0.4660161145864095E-12    0.3262772656220658E-09
 -0.4989   0.4330    0.4751063296480302E-01   -0.5958349253578565E-03    0.4709246913210502E-05   -0.2775209473921652E+00    0.5446196581602181E+00    0.3212083970628079E-06   -0.5730529713948718E-09    0.2324813952458982E-11   -0.4556216515183564E-12    0.4386563300096125E-09
 -0.4989   0.4157    0.5066385250594754E-01   -0.7071073413620284E-03    0.2186442079098290E-05   -0.2225666080928208E+00    0.6453998842515721E+00    0.3813528054555797E-06   -0.5790003398606358E-09    0.3957764671547181E-11   -0.4794133839913783E-12    0.5724425967967850E-09
 -0.4989   0.3967    0.5281944141857943E-01   -0.7313052380495124E-03   -0.7732035056256162E-06   -0.1639383403405801E+00    0.6661196876571898E+00    0.3946800887196771E-06   -0.5860923539026397E-09    0.5975928085710791E-11   -0.4931315772394029E-12    0.7218907485673220E-09
 -0.4989   0.3759    0.5380197533791380E-01   -0.6433233483924298E-03   -0.3671112201804319E-05   -0.1033851245084152E+00    0.5833546605335814E+00    0.3476877862528810E-06   -0.5946289823380302E-09    0.8344575030960755E-11   -0.4936988318160473E-12    0.8708079396457791E-09
 -0.4989   0.3536    0.5350110961008245E-01   -0.4353943883965678E-03   -0.6173649492310785E-05   -0.4340425518023563E-01    0.3895278467812731E+00    0.2363277081601505E-06   -0.6045886343647444E-09    0.1098067470284292E-10   -0.4495778749280532E-12    0.9860445931986206E-09
 -0.4989   0.3297    0.5186998656701045E-01   -0.1138937768316265E-03   -0.8150480313122842E-05    0.1286826396030430E-01    0.9017744379537694E-01    0.6404801030285103E-07   -0.6151323755920757E-09    0.1378372416205309E-10   -0.4210035098317633E-12    0.1018194653590321E-08
 -0.4989   0.3044    0.4893893912635131E-01    0.3093040069571097E-03   -0.9711486628104534E-05    0.6218524685163075E-01   -0.3039382648339655E+00   -0.1626951801369934E-06   -0.6238762666199715E-09    0.1664179904992125E-10   -0.3902433931557425E-12    0.9132038458758984E-09
 -0.4989   0.2778    0.4483528488950923E-01    0.8252517325885484E-03   -0.1104490201708925E-04    0.1020651777225912E+00   -0.7845410751681562E+00   -0.4391297373556079E-06   -0.6267880207910803E-09    0.1943638305856865E-10   -0.3562358741326932E-12    0.6349037129371737E-09
 -0.4989   0.2500    0.3978797727160067E-01    0.1431484692422482E-02   -0.1232621016939693E-04    0.1316167262812842E+00   -0.1349195731304192E+01   -0.7639329441131915E-06   -0.6189158595348854E-09    0.2201994836470433E-10   -0.2478087179902388E-12    0.1879513489289053E-09
 -0.4989   0.2211    0.3410636484305950E-01    0.2130088885585211E-02   -0.1361502464726101E-04    0.1517920216379488E+00   -0.1999545293578337E+01   -0.1138304027872927E-05   -0.5957694303171390E-09    0.2422936851154134E-10   -0.1142835825973521E-12   -0.3769235548678473E-09
 -0.4989   0.1913    0.2814646714928432E-01    0.2922539892935789E-02   -0.1486945025176760E-04    0.1648743636568357E+00   -0.2736580063326466E+01   -0.1563084555007101E-05   -0.5545781542326544E-09    0.2589761738391871E-10   -0.3134992265785286E-13   -0.9810228358830830E-09
 -0.4989   0.1607    0.2228435439388401E-01    0.3803618942029145E-02   -0.1593990106478685E-04    0.1735364479935554E+00   -0.3555011918059329E+01   -0.2035578997705090E-05   -0.4946976543684922E-09    0.2680148984690600E-10    0.9205136652923329E-13   -0.1548417800228963E-08
 -0.4989   0.1294    0.1690134656221303E-01    0.4756505205866156E-02   -0.1663514587450775E-04    0.1800377598316982E+00   -0.4438812378750553E+01   -0.2546827045916455E-05   -0.4175594869870736E-09    0.2664493278792257E-10    0.2119415754009424E-12   -0.2028274129380059E-08
 -0.4989   0.0975    0.1237038700966318E-01    0.5750862414421588E-02   -0.1676095353133163E-04    0.1858916278910457E+00   -0.5359514097023499E+01   -0.3080630449076425E-05   -0.3263160089361783E-09    0.2508778601528761E-10    0.3094746681142624E-12   -0.2400762889485583E-08
 -0.4989   0.0653    0.9033211322561536E-02    0.6744508622447429E-02   -0.1618185021105873E-04    0.1919413285272744E+00   -0.6277839363060579E+01   -0.3614374047402857E-05   -0.2255806305639929E-09    0.2185446268399005E-10    0.3788636071533347E-12   -0.2668492452614218E-08
 -0.4989   0.0327    0.7167006147219373E-02    0.7687517820927724E-02   -0.1482170831289220E-04    0.1985985416748678E+00   -0.7147526907656731E+01   -0.4121273679616362E-05   -0.1211187712624184E-09    0.1686628614550045E-10    0.4582445534140334E-12   -0.2844542798356720E-08
 -0.4989   0.0000    0.6947095043912070E-02    0.8526989936870078E-02   -0.1266830284569854E-04    0.2060546565007848E+00   -0.7919760052075501E+01   -0.4572890185200826E-05   -0.1922549272559415E-10    0.1030284191294584E-10    0.4582376145201295E-12   -0.2945583030961041E-08
 -0.4989  -0.0327    0.8413705871501736E-02    0.9211237953457352E-02   -0.9745332757639627E-05    0.2144053212173019E+00   -0.8547024345104287E+01   -0.4941418460860765E-05    0.7388751763204304E-10    0.2580102798077633E-11    0.4151470833768656E-12   -0.2985881908043608E-08
 -0.4989  -0.0653    0.1144882966629940E-01    0.9693215512675258E-02   -0.6114196664736990E-05    0.2237058112492707E+00   -0.8986257785006933E+01   -0.5201501067797874E-05    0.1528584481214068E-09   -0.5757505583403599E-11    0.3232136780439987E-12   -0.2976840092136501E-08
 -0.4989  -0.0975    0.1576707780218522E-01    0.9933747000933536E-02   -0.1871992437506513E-05    0.2339896326825407E+00   -0.9201806653385042E+01   -0.5331993528072709E-05    0.2138089046088698E-09   -0.1403882565753634E-10    0.2027145812322217E-12   -0.2927787722331598E-08
 -0.4989  -0.1294    0.2092440146178036E-01    0.9905306122251753E-02    0.2821349467077254E-05    0.2452719743051101E+00   -0.9168868500929015E+01   -0.5317985344475782E-05    0.2548836558480261E-09   -0.2158928591455833E-10    0.4362482597386474E-13   -0.2845593516029310E-08
 -0.4989  -0.1607    0.2634919182975488E-01    0.9596527215483914E-02    0.7728812840554793E-05    0.2575481611758096E+00   -0.8877590004288946E+01   -0.5153248566725258E-05    0.2764676022837254E-09   -0.2777472696280370E-10   -0.1388680836988954E-12   -0.2735450635102388E-08
 -0.4989  -0.1913    0.3139883692318009E-01    0.9016722636621510E-02    0.1252578174094515E-04    0.2707911753852492E+00   -0.8337130844008943E+01   -0.4842680634429360E-05    0.2812851444822240E-09   -0.3203226572878748E-10   -0.3704953011052226E-12   -0.2601972443061484E-08
 -0.4989  -0.2211    0.3543916088336547E-01    0.8198736713708587E-02    0.1682839608092775E-04    0.2849498728131163E+00   -0.7578196003006388E+01   -0.4403855188397684E-05    0.2740357801789273E-09   -0.3400207893022866E-10   -0.5356964871694458E-12   -0.2448483573877502E-08
 -0.4989  -0.2500    0.3793475082664340E-01    0.7198202708739493E-02    0.2024931175270379E-04    0.2999484874567975E+00   -0.6652254394973289E+01   -0.3866650743416764E-05    0.2605461124627340E-09   -0.3358791023089225E-10   -0.7902983822916099E-12   -0.2278071791969594E-08
 -0.4989  -0.2778    0.3852958048549530E-01    0.6087966658097796E-02    0.2247879336155426E-04    0.3156872419423016E+00   -0.5626388731869247E+01   -0.3270236459367679E-05    0.2466809465029307E-09   -0.3096678469205472E-10   -0.9555273239314488E-12   -0.2094125425150528E-08
 -0.4989  -0.3044    0.3709525385390470E-01    0.4948166814759314E-02    0.2335851413461911E-04    0.3320431143839692E+00   -0.4574188567243667E+01   -0.2657758988767443E-05    0.2372839841280339E-09   -0.2662864373448315E-10   -0.1058861331948435E-11   -0.1899905885394126E-08
 -0.4989  -0.3297    0.3373279921412204E-01    0.3854324595667172E-02    0.2291628759973102E-04    0.3488692901148875E+00   -0.3564908684288882E+01   -0.2069875918741613E-05    0.2351209504869445E-09   -0.2125935538721535E-10   -0.1165276208858756E-11   -0.1699025297188794E-08
 -0.4989  -0.3536    0.2872975229352328E-01    0.2866862995495633E-02    0.2135312339489648E-04    0.3659920377001264E+00   -0.2653906379916715E+01   -0.1539152321909301E-05    0.2407495244827196E-09   -0.1559667672790255E-10   -0.1236649671554346E-11   -0.1494446233429869E-08
 -0.4989  -0.3759    0.2248986612381698E-01    0.2024905883890725E-02    0.1897413541661472E-04    0.3832050653183310E+00   -0.1877040400350117E+01   -0.1086640514656005E-05    0.2528201537010943E-09   -0.1030323049100446E-10   -0.1239591762569603E-11   -0.1290332700062957E-08
 -0.4989  -0.3967    0.1545894711337319E-01    0.1345454645307765E-02    0.1611517108510319E-04    0.4002636489765592E+00   -0.1249892537896169E+01   -0.7215234437689546E-06    0.2689232968255961E-09   -0.5837066940905800E-11   -0.1239383595752486E-11   -0.1091217810555989E-08
 -0.4989  -0.4157    0.8066382454030045E-02    0.8269838841164007E-03    0.1305896889912259E-04    0.4168829160600033E+00   -0.7710902032162757E+00   -0.4429427955001299E-06    0.2863726374091602E-09   -0.2429813295012906E-11   -0.1213217026840852E-11   -0.9003389388195782E-09
 -0.4989  -0.4330    0.6906468812618476E-03    0.4552806377481472E-03    0.1001322988226799E-04    0.4327450019443799E+00   -0.4275656025511846E+00   -0.2432916291699562E-06    0.3029757937589306E-09   -0.1018074513581269E-12   -0.1188354969983152E-11   -0.7223721516791404E-09
 -0.4989  -0.4484   -0.6352775232682127E-02    0.2091880451177033E-03    0.7088478555174251E-05    0.4475172791103280E+00   -0.1998533647528488E+00   -0.1111379922812185E-06    0.3172328372214039E-09    0.1275167471614935E-11   -0.1154534801095508E-11   -0.5593800804504223E-09
 -0.4989  -0.4619   -0.1280969769754944E-01    0.6464292086590674E-04    0.4369336691134811E-05    0.4608790970150494E+00   -0.6567450024663023E-01   -0.3362873406111648E-07    0.3285407813857777E-09    0.1912976721474280E-11   -0.1129128041066352E-11   -0.4144940866229740E-09
 -0.4989  -0.4735   -0.1848071886102822E-01   -0.3486075574787679E-05    0.1939586308410995E-05    0.4725498636019159E+00   -0.1742816208891956E-02    0.2809242128141254E-08    0.3368656846525209E-09    0.2056067122113703E-11   -0.1112604799957673E-11   -0.2899815405160711E-09
 -0.4989  -0.4830   -0.2321828269339270E-01   -0.2106245087339224E-04    0.3506753574834133E-07    0.4823096503451237E+00    0.1600792085505227E-01    0.1192952117962769E-07    0.3429063261367171E-09    0.1935000770725281E-11   -0.1116821262206469E-11   -0.1864544200459728E-09
 -0.4989  -0.4904   -0.2692878561375415E-01   -0.1379956493654276E-04   -0.1054416532779156E-05    0.4900061189738670E+00    0.1118120545337366E-01    0.7738934033914707E-08    0.3474866893792700E-09    0.1726121849621176E-11   -0.1069888969085220E-11   -0.1051053610465202E-09
 -0.4989  -0.4957   -0.2957607576077198E-01   -0.3516099539275650E-05   -0.9924159432221583E-06    0.4955472931994405E+00    0.3437054891773500E-02    0.1834243982410923E-08    0.3523931166402733E-09    0.1495367089703048E-11   -0.1138394933875020E-11   -0.4659420473149961E-10
 -0.4989  -0.4989   -0.3116614022590731E-01   -0.6863773078304146E-07   -0.6894034122225201E-07    0.4988854539077728E+00    0.4487440698585213E-03    0.6187584145436455E-10    0.3575849040699311E-09    0.7778476213832208E-12   -0.7809699067995446E-12   -0.1158442824089265E-10
 -0.4989  -0.5000   -0.3169916677294966E-01    0.0000000000000000E+00    0.0000000000000000E+00    0.5000000000000000E+00   -0.1581206018139503E-03    0.0000000000000000E+00    0.0000000000000000E+00    0.0000000000000000E+00    0.0000000000000000E+00    0.0000000000000000E+00
 -0.4957   0.5000    0.2249667671197039E-01    0.0000000000000000E+00    0.0000000000000000E+00   -0.5000000000000000E+00   -0.4651776121564193E-02    0.0000000000000000E+00    0.0000000000000000E+00    0.0000000000000000E+00    0.0000000000000000E+00    0.0000000000000000E+00
 -0.4957   0.4989    0.2302909212420547E-01    0.4433911966069808E-06   -0.3280605350578379E-05   -0.4963804036232249E+00   -0.1415140842674676E-02   -0.2003996050010604E-08   -0.5527309415286757E-09   -0.4237991793436258E-12   -0.5488270428399833E-12    0.6215495945618293E-11
 -0.4957   0.4957    0.2461478422347580E-01   -0.8804034118338058E-06    0.8823201946592357E-06   -0.4855384920317783E+00    0.6798479225002874E-02   -0.1007380813606333E-07   -0.5535164544594184E-09   -0.1372405227656470E-11   -0.1304912775057510E-11    0.2535873789601129E-10
 -0.4957   0.4904    0.2720514675512787E-01   -0.3878950908487949E-04    0.2577342414377100E-04   -0.4675327523276790E+00    0.2132556769291501E-01    0.5706296647462666E-07   -0.5550760528300058E-09   -0.1972645137515716E-11   -0.1620698367177376E-11    0.5676270304483255E-10
 -0.4957   0.4830    0.3067031265291459E-01   -0.1902604900943581E-03    0.6074846404995423E-04   -0.4424836744648369E+00    0.5488858382878872E-01    0.3838789953037533E-06   -0.5571770718415525E-09   -0.1917489604597034E-11   -0.1823222128827240E-11    0.1013204823860359E-09
 -0.4957   0.4735    0.3476974189669767E-01   -0.5195742311184367E-03    0.8971962170458159E-04   -0.4105961015458606E+00    0.1222933674808836E+00    0.1113122260155229E-05   -0.5599053026772438E-09   -0.1014627618034503E-11   -0.2008237326434070E-11    0.1597305083339551E-09
 -0.4957   0.4619    0.3917610894931281E-01   -0.1028039057816189E-02    0.1027215156647961E-03   -0.3721723230241391E+00    0.2262461347272840E+00    0.2242301496566109E-05   -0.5633317631814627E-09    0.9944614576262722E-12   -0.2185987502123510E-11    0.2340967523994930E-09
 -0.4957   0.4484    0.4352263164991233E-01   -0.1642916621318958E-02    0.9620129568828372E-04   -0.3276197120560321E+00    0.3529259758409118E+00    0.3606500493958239E-05   -0.5674849132275561E-09    0.4298561506743681E-11   -0.2339087257219319E-11    0.3261883436966873E-09
 -0.4957   0.4330    0.4744871755719297E-01   -0.2232558964459597E-02    0.7118334605647198E-04   -0.2774791078141115E+00    0.4746704404294076E+00    0.4914928819375971E-05   -0.5724060808676157E-09    0.9031490832978051E-11   -0.2474985494327342E-11    0.4389575473939811E-09