 title="result"
 variables="x","y","P","u","v","t","omega","psi","RES1","RES2","RES3","RES4"
zone,j= 49,i= 49,f=point
 -0.4450   0.5495    0.2430874998555454E-01    0.0000000000000000E+00    0.0000000000000000E+00   -0.5000000000000000E+00    0.0000000000000000E+00    0.0000000000000000E+00    0.0000000000000000E+00    0.0000000000000000E+00    0.0000000000000000E+00    0.0000000000000000E+00
 -0.4451   0.5485    0.2483682276934996E-01    0.0000000000000000E+00    0.0000000000000000E+00   -0.4960350902907902E+00   -0.2348245430061966E-03    0.0000000000000000E+00    0.0000000000000000E+00    0.0000000000000000E+00    0.0000000000000000E+00    0.0000000000000000E+00
 -0.4454   0.5453    0.2640634277309726E-01    0.0000000000000000E+00    0.0000000000000000E+00   -0.4841590024362362E+00   -0.4343640696658374E-02    0.0000000000000000E+00    0.0000000000000000E+00    0.0000000000000000E+00    0.0000000000000000E+00    0.0000000000000000E+00
 -0.4460   0.5400    0.2897059955212145E-01    0.0000000000000000E+00    0.0000000000000000E+00   -0.4644374059119376E+00   -0.7595140136437130E-02    0.0000000000000000E+00    0.0000000000000000E+00    0.0000000000000000E+00    0.0000000000000000E+00    0.0000000000000000E+00
 -0.4468   0.5326    0.3240288227846415E-01    0.0000000000000000E+00    0.0000000000000000E+00   -0.4370105038793636E+00    0.5605050532889091E-02    0.0000000000000000E+00    0.0000000000000000E+00    0.0000000000000000E+00    0.0000000000000000E+00    0.0000000000000000E+00
 -0.4478   0.5231    0.3646932336621962E-01    0.0000000000000000E+00    0.0000000000000000E+00   -0.4021318075905952E+00    0.4723430931100089E-01    0.0000000000000000E+00    0.0000000000000000E+00    0.0000000000000000E+00    0.0000000000000000E+00    0.0000000000000000E+00
 -0.4490   0.5117    0.4085998475627194E-01    0.0000000000000000E+00    0.0000000000000000E+00   -0.3602101917106637E+00    0.1180098158185609E+00    0.0000000000000000E+00    0.0000000000000000E+00    0.0000000000000000E+00    0.0000000000000000E+00    0.0000000000000000E+00
 -0.4504   0.4982    0.4522202647648076E-01    0.0000000000000000E+00    0.0000000000000000E+00   -0.3118557620440816E+00    0.2066410937071275E+00    0.0000000000000000E+00    0.0000000000000000E+00    0.0000000000000000E+00    0.0000000000000000E+00    0.0000000000000000E+00
 -0.4520   0.4829    0.4919433298231297E-01    0.0000000000000000E+00    0.0000000000000000E+00   -0.2579423494332636E+00    0.2921801266415106E+00    0.0000000000000000E+00    0.0000000000000000E+00    0.0000000000000000E+00    0.0000000000000000E+00    0.0000000000000000E+00
 -0.4538   0.4657    0.5243828671320645E-01    0.0000000000000000E+00    0.0000000000000000E+00   -0.1997005598940186E+00    0.3483809504601477E+00    0.0000000000000000E+00    0.0000000000000000E+00    0.0000000000000000E+00    0.0000000000000000E+00    0.0000000000000000E+00
 -0.4558   0.4468    0.5466552484368479E-01    0.0000000000000000E+00    0.0000000000000000E+00   -0.1388340583950851E+00    0.3489333084095443E+00    0.0000000000000000E+00    0.0000000000000000E+00    0.0000000000000000E+00    0.0000000000000000E+00    0.0000000000000000E+00
 -0.4580   0.4261    0.5565920461917628E-01    0.0000000000000000E+00    0.0000000000000000E+00   -0.7760787714635820E-01    0.2726851509892838E+00    0.0000000000000000E+00    0.0000000000000000E+00    0.0000000000000000E+00    0.0000000000000000E+00    0.0000000000000000E+00
 -0.4603   0.4039    0.5528884852702319E-01    0.0000000000000000E+00    0.0000000000000000E+00   -0.1880697941842134E-01    0.1070419102021196E+00    0.0000000000000000E+00    0.0000000000000000E+00    0.0000000000000000E+00    0.0000000000000000E+00    0.0000000000000000E+00
 -0.4628   0.3801    0.5351919705339336E-01    0.0000000000000000E+00    0.0000000000000000E+00    0.3455260395578745E-01   -0.1520380826021217E+00    0.0000000000000000E+00    0.0000000000000000E+00    0.0000000000000000E+00    0.0000000000000000E+00    0.0000000000000000E+00
 -0.4654   0.3550    0.5041519553958550E-01    0.0000000000000000E+00    0.0000000000000000E+00    0.7979868527996493E-01   -0.5036164656769185E+00    0.0000000000000000E+00    0.0000000000000000E+00    0.0000000000000000E+00    0.0000000000000000E+00    0.0000000000000000E+00
 -0.4682   0.3285    0.4614027479011711E-01    0.0000000000000000E+00    0.0000000000000000E+00    0.1153103845137199E+00   -0.9465959467065295E+00    0.0000000000000000E+00    0.0000000000000000E+00    0.0000000000000000E+00    0.0000000000000000E+00    0.0000000000000000E+00
 -0.4711   0.3009    0.4094343609347467E-01    0.0000000000000000E+00    0.0000000000000000E+00    0.1410133763924775E+00   -0.1482621797616031E+01    0.0000000000000000E+00    0.0000000000000000E+00    0.0000000000000000E+00    0.0000000000000000E+00    0.0000000000000000E+00
 -0.4741   0.2722    0.3513518701706173E-01    0.0000000000000000E+00    0.0000000000000000E+00    0.1583388063060356E+00   -0.2115299246777638E+01    0.0000000000000000E+00    0.0000000000000000E+00    0.0000000000000000E+00    0.0000000000000000E+00    0.0000000000000000E+00
 -0.4773   0.2426    0.2906218354312422E-01    0.0000000000000000E+00    0.0000000000000000E+00    0.1696278642098818E+00   -0.2846345628041571E+01    0.0000000000000000E+00    0.0000000000000000E+00    0.0000000000000000E+00    0.0000000000000000E+00    0.0000000000000000E+00
 -0.4805   0.2121    0.2309005757260016E-01    0.0000000000000000E+00    0.0000000000000000E+00    0.1773228221525569E+00   -0.3670596284503298E+01    0.0000000000000000E+00    0.0000000000000000E+00    0.0000000000000000E+00    0.0000000000000000E+00    0.0000000000000000E+00
 -0.4837   0.1810    0.1759392422641768E-01    0.0000000000000000E+00    0.0000000000000000E+00    0.1833703996682066E+00   -0.4572074424716944E+01    0.0000000000000000E+00    0.0000000000000000E+00    0.0000000000000000E+00    0.0000000000000000E+00    0.0000000000000000E+00
 -0.4871   0.1493    0.1294671216049059E-01    0.0000000000000000E+00    0.0000000000000000E+00    0.1890301274343588E+00   -0.5522684860126010E+01    0.0000000000000000E+00    0.0000000000000000E+00    0.0000000000000000E+00    0.0000000000000000E+00    0.0000000000000000E+00
 -0.4904   0.1172    0.9497382953014312E-02    0.0000000000000000E+00    0.0000000000000000E+00    0.1949908245395121E+00   -0.6483831636201472E+01    0.0000000000000000E+00    0.0000000000000000E+00    0.0000000000000000E+00    0.0000000000000000E+00    0.0000000000000000E+00
 -0.4938   0.0848    0.7538809966209400E-02    0.0000000000000000E+00    0.0000000000000000E+00    0.2015881819997025E+00   -0.7409932922224632E+01    0.0000000000000000E+00    0.0000000000000000E+00    0.0000000000000000E+00    0.0000000000000000E+00    0.0000000000000000E+00
 -0.4973   0.0523    0.7271727619207383E-02    0.0000000000000000E+00    0.0000000000000000E+00    0.2089819658932875E+00   -0.8252371119118292E+01    0.0000000000000000E+00    0.0000000000000000E+00    0.0000000000000000E+00    0.0000000000000000E+00    0.0000000000000000E+00
 -0.5007   0.0197    0.8771827046822797E-02    0.0000000000000000E+00    0.0000000000000000E+00    0.2172562678947813E+00   -0.8962828147363460E+01    0.0000000000000000E+00    0.0000000000000000E+00    0.0000000000000000E+00    0.0000000000000000E+00    0.0000000000000000E+00
 -0.5041  -0.0126    0.1196494913826364E-01    0.0000000000000000E+00    0.0000000000000000E+00    0.2264626690875896E+00   -0.9495868550974732E+01    0.0000000000000000E+00    0.0000000000000000E+00    0.0000000000000000E+00    0.0000000000000000E+00    0.0000000000000000E+00
 -0.5075  -0.0447    0.1661315193096917E-01    0.0000000000000000E+00    0.0000000000000000E+00    0.2366340148960427E+00   -0.9811355919017233E+01    0.0000000000000000E+00    0.0000000000000000E+00    0.0000000000000000E+00    0.0000000000000000E+00    0.0000000000000000E+00
 -0.5108  -0.0764    0.2231507532426869E-01    0.0000000000000000E+00    0.0000000000000000E+00    0.2477862496175303E+00   -0.9877563540551977E+01    0.0000000000000000E+00    0.0000000000000000E+00    0.0000000000000000E+00    0.0000000000000000E+00    0.0000000000000000E+00
 -0.5141  -0.1076    0.2852568519244624E-01    0.0000000000000000E+00    0.0000000000000000E+00    0.2599162978229616E+00   -0.9675437932527574E+01    0.0000000000000000E+00    0.0000000000000000E+00    0.0000000000000000E+00    0.0000000000000000E+00    0.0000000000000000E+00
 -0.5173  -0.1380    0.3460105836091959E-01    0.0000000000000000E+00    0.0000000000000000E+00    0.2729992076004998E+00   -0.9203625908879976E+01    0.0000000000000000E+00    0.0000000000000000E+00    0.0000000000000000E+00    0.0000000000000000E+00    0.0000000000000000E+00
 -0.5204  -0.1677    0.3986978221402565E-01    0.0000000000000000E+00    0.0000000000000000E+00    0.2869859528365174E+00   -0.8482817873374161E+01    0.0000000000000000E+00    0.0000000000000000E+00    0.0000000000000000E+00    0.0000000000000000E+00    0.0000000000000000E+00
 -0.5234  -0.1964    0.4372369745771543E-01    0.0000000000000000E+00    0.0000000000000000E+00    0.3018025381945318E+00   -0.7557318217903735E+01    0.0000000000000000E+00    0.0000000000000000E+00    0.0000000000000000E+00    0.0000000000000000E+00    0.0000000000000000E+00
 -0.5263  -0.2240    0.4570961789768160E-01    0.0000000000000000E+00    0.0000000000000000E+00    0.3173504214662726E+00   -0.6491986235105711E+01    0.0000000000000000E+00    0.0000000000000000E+00    0.0000000000000000E+00    0.0000000000000000E+00    0.0000000000000000E+00
 -0.5291  -0.2504    0.4559727399104945E-01    0.0000000000000000E+00    0.0000000000000000E+00    0.3335075300087988E+00   -0.5364115113807578E+01    0.0000000000000000E+00    0.0000000000000000E+00    0.0000000000000000E+00    0.0000000000000000E+00    0.0000000000000000E+00
 -0.5317  -0.2756    0.4340258676862450E-01    0.0000000000000000E+00    0.0000000000000000E+00    0.3501285035909117E+00   -0.4251872254636016E+01    0.0000000000000000E+00    0.0000000000000000E+00    0.0000000000000000E+00    0.0000000000000000E+00    0.0000000000000000E+00
 -0.5342  -0.2994    0.3936022240609328E-01    0.0000000000000000E+00    0.0000000000000000E+00    0.3670427173401931E+00   -0.3222591066703522E+01    0.0000000000000000E+00    0.0000000000000000E+00    0.0000000000000000E+00    0.0000000000000000E+00    0.0000000000000000E+00
 -0.5366  -0.3216    0.3385769320386123E-01    0.0000000000000000E+00    0.0000000000000000E+00    0.3840495977509211E+00   -0.2324366621903464E+01    0.0000000000000000E+00    0.0000000000000000E+00    0.0000000000000000E+00    0.0000000000000000E+00    0.0000000000000000E+00
 -0.5387  -0.3422    0.2735518042965153E-01    0.0000000000000000E+00    0.0000000000000000E+00    0.4009127892432188E+00   -0.1582974951269191E+01    0.0000000000000000E+00    0.0000000000000000E+00    0.0000000000000000E+00    0.0000000000000000E+00    0.0000000000000000E+00
 -0.5407  -0.3612    0.2031508770832266E-01    0.0000000000000000E+00    0.0000000000000000E+00    0.4173570641546899E+00   -0.1003938054376170E+01    0.0000000000000000E+00    0.0000000000000000E+00    0.0000000000000000E+00    0.0000000000000000E+00    0.0000000000000000E+00
 -0.5425  -0.3784    0.1315550275711320E-01    0.0000000000000000E+00    0.0000000000000000E+00    0.4330729285677793E+00   -0.5778186473175327E+00    0.0000000000000000E+00    0.0000000000000000E+00    0.0000000000000000E+00    0.0000000000000000E+00    0.0000000000000000E+00
 -0.5441  -0.3937    0.6229560084598549E-02    0.0000000000000000E+00    0.0000000000000000E+00    0.4477321973079675E+00   -0.2862441014514348E+00    0.0000000000000000E+00    0.0000000000000000E+00    0.0000000000000000E+00    0.0000000000000000E+00    0.0000000000000000E+00
 -0.5455  -0.4071   -0.1764592617989750E-03    0.0000000000000000E+00    0.0000000000000000E+00    0.4610133677865746E+00   -0.1065605164637532E+00    0.0000000000000000E+00    0.0000000000000000E+00    0.0000000000000000E+00    0.0000000000000000E+00    0.0000000000000000E+00
 -0.5468  -0.4186   -0.5836706237489777E-02    0.0000000000000000E+00    0.0000000000000000E+00    0.4726304298708230E+00   -0.1419485598007973E-01    0.0000000000000000E+00    0.0000000000000000E+00    0.0000000000000000E+00    0.0000000000000000E+00    0.0000000000000000E+00
 -0.5477  -0.4281   -0.1058132494705981E-01    0.0000000000000000E+00    0.0000000000000000E+00    0.4823559068817105E+00    0.1703605272869507E-01    0.0000000000000000E+00    0.0000000000000000E+00    0.0000000000000000E+00    0.0000000000000000E+00    0.0000000000000000E+00
 -0.5485  -0.4354   -0.1429847813008006E-01    0.0000000000000000E+00    0.0000000000000000E+00    0.4900305635094860E+00    0.1447787553372087E-01    0.0000000000000000E+00    0.0000000000000000E+00    0.0000000000000000E+00    0.0000000000000000E+00    0.0000000000000000E+00
 -0.5491  -0.4407   -0.1694081590174020E-01    0.0000000000000000E+00    0.0000000000000000E+00    0.4955578879783520E+00    0.3822777855000055E-02    0.0000000000000000E+00    0.0000000000000000E+00    0.0000000000000000E+00    0.0000000000000000E+00    0.0000000000000000E+00
 -0.5494  -0.4439   -0.1852126214009880E-01    0.0000000000000000E+00    0.0000000000000000E+00    0.4988880883189634E+00   -0.1326236175270288E-03    0.0000000000000000E+00    0.0000000000000000E+00    0.0000000000000000E+00    0.0000000000000000E+00    0.0000000000000000E+00
 -0.5495  -0.4450   -0.1905090657364153E-01    0.0000000000000000E+00    0.0000000000000000E+00    0.5000000000000000E+00    0.0000000000000000E+00    0.0000000000000000E+00    0.0000000000000000E+00    0.0000000000000000E+00    0.0000000000000000E+00    0.0000000000000000E+00
 -0.4439   0.5494    0.2436685134827486E-01    0.0000000000000000E+00    0.0000000000000000E+00   -0.5000000000000000E+00   -0.2349560351301627E-03    0.0000000000000000E+00    0.0000000000000000E+00    0.0000000000000000E+00    0.0000000000000000E+00    0.0000000000000000E+00
 -0.4440   0.5483    0.2489470333505990E-01    0.2846320227514061E-06   -0.2847196216621065E-06   -0.4960350068418633E+00   -0.5379227177617018E-03   -0.1987846924180095E-09    0.2798081169975292E-09    0.5494458376774022E-12    0.5242288807910667E-12   -0.5024171942195899E-11
 -0.4444   0.5452    0.2646293435340279E-01    0.3611160934009384E-05   -0.6983957442585962E-06   -0.4841586698769325E+00   -0.2435499735808509E-02   -0.2073790985728842E-08    0.2832651576408635E-09    0.9482024540541367E-12    0.7540346385476182E-12   -0.1889938552879222E-10
 -0.4449   0.5399    0.2902116899258846E-01    0.5605509817749088E-05    0.2639664897495024E-06   -0.4644366697864127E+00   -0.2802308453212193E-02   -0.3468772554044877E-08    0.2863945874074028E-09    0.9818760388080605E-12    0.7171511648418338E-12   -0.4240333431604348E-10
 -0.4457   0.5325    0.3244313698489796E-01   -0.8768990230885574E-05    0.1747384436621659E-05   -0.4370092414490058E+00    0.1079834815513928E-01    0.4234597683502723E-08    0.2885493927129446E-09    0.8877794333006506E-12    0.7261864720664590E-12   -0.7646421863738428E-10
 -0.4467   0.5230    0.3649940210259469E-01   -0.5206895229569590E-04    0.3050278731594744E-05   -0.4021299314551650E+00    0.5005553063587333E-01    0.2759542091920396E-07    0.2902541219526600E-09    0.7911076307931530E-12    0.7328686268959217E-12   -0.1219733550272828E-09
 -0.4479   0.5116    0.4088216765339762E-01   -0.1254397737703677E-03    0.3692560862048697E-05   -0.3602076220586853E+00    0.1163135671429153E+00    0.6732006998502201E-07    0.2917570074423281E-09    0.7672976837236334E-12    0.7215408825977931E-12   -0.1824604321798429E-09
 -0.4493   0.4981    0.4523961796026559E-01   -0.2172993147889338E-03    0.3533956985876070E-05   -0.3118523832463494E+00    0.1992856608000193E+00    0.1170030442627561E-06    0.2937146090578602E-09    0.8627300263075455E-12    0.7560965742392511E-12   -0.2629340287163551E-09
 -0.4509   0.4828    0.4921058974753131E-01   -0.3057422503936504E-03    0.2573950068066717E-05   -0.2579379798921681E+00    0.2789577848227278E+00    0.1649175932261374E-06    0.2968630610430956E-09    0.1017498585387244E-11    0.7383989253373358E-12   -0.3716544016985068E-09
 -0.4527   0.4656    0.5245592834033244E-01   -0.3631116488601527E-03    0.9760120703412980E-06   -0.1996949635166093E+00    0.3299347094195224E+00    0.1961085179670556E-06    0.3021740342754736E-09    0.1088441836660792E-11    0.7428268070097666E-12   -0.5169093972301475E-09
 -0.4547   0.4467    0.5468627797212066E-01   -0.3615555783463905E-03   -0.1038554390434107E-05   -0.1388270163856438E+00    0.3264711862975209E+00    0.1956704288399970E-06    0.3105807598949295E-09    0.8820791319585908E-12    0.7154025635780492E-12   -0.7047383648872696E-09
 -0.4569   0.4260    0.5568376010079777E-01   -0.2785595511255688E-03   -0.3192332711675652E-05   -0.7759932114949497E-01    0.2476725785371472E+00    0.1514798541711886E-06    0.3231215815746591E-09    0.2480030070195482E-12    0.7221740566665247E-12   -0.9318421034798519E-09
 -0.4592   0.4038    0.5531704444105470E-01   -0.1005859312831430E-03   -0.5262395432071161E-05   -0.1879715148715741E-01    0.8082715511027620E-01    0.5634058081011847E-07    0.3407836582369761E-09   -0.8725797862041418E-12    0.7245280764234252E-12   -0.1176731698193656E-08
 -0.4617   0.3800    0.5355060539098801E-01    0.1768654832552119E-03   -0.7116212740734576E-05    0.3456305159425865E-01   -0.1784224771477994E+00   -0.9215988885993678E-07    0.3642618654625673E-09   -0.2448180547176548E-11    0.7173289739981215E-12   -0.1395143389704145E-08
 -0.4644   0.3549    0.5044968064742174E-01    0.5529521589003735E-03   -0.8762572162992322E-05    0.7980876324519376E-01   -0.5294509052968995E+00   -0.2935129657278384E-06    0.3932170769549437E-09   -0.4428693523017557E-11    0.6616304726314581E-12   -0.1525500337162811E-08
 -0.4672   0.3284    0.4617833436845276E-01    0.1026536095015290E-02   -0.1028601815313960E-04    0.1153190525583028E+00   -0.9712231603399782E+00   -0.5471275866828046E-06    0.4257392251239001E-09   -0.6810163544201941E-11    0.6048495038157853E-12   -0.1508771919900287E-08
 -0.4701   0.3008    0.4098602327978079E-01    0.1599238061608892E-02   -0.1178480726400568E-04    0.1410199196688575E+00   -0.1505127209007353E+01   -0.8538753241072157E-06    0.4581370872946966E-09   -0.9642557585731737E-11    0.5461742169643458E-12   -0.1313929791357804E-08
 -0.4731   0.2721    0.3518324992896219E-01    0.2274619443899728E-02   -0.1328486020063703E-04    0.1583430690269653E+00   -0.2134205761006983E+01   -0.1215733181288083E-05    0.4858593527501398E-09   -0.1301595636826747E-10    0.4407585407761871E-12   -0.9552699083148486E-09
 -0.4762   0.2424    0.2911607887273900E-01    0.3054120704554178E-02   -0.1472536302797747E-04    0.1696301964074435E+00   -0.2859435157400217E+01   -0.1633528037170726E-05    0.5043870598964162E-09   -0.1703005098052657E-10    0.3444883267533783E-12   -0.4865990908820006E-09
 -0.4794   0.2120    0.2314916355194643E-01    0.3931804075900446E-02   -0.1595887338773717E-04    0.1773238139218802E+00   -0.3674883392956740E+01   -0.2104166967054100E-05    0.5101318395484000E-09   -0.2168882434760988E-10    0.2489952688478070E-12    0.2181548865165528E-10
 -0.4827   0.1809    0.1765648389652235E-01    0.4890249752133050E-02   -0.1680387225031093E-04    0.1833706068544943E+00   -0.4563985213464308E+01   -0.2618371731902031E-05    0.5005433845184371E-09   -0.2685142039271504E-10    0.1404987237663136E-12    0.5083240356418273E-09
 -0.4860   0.1492    0.1300998700338245E-01    0.5899252168816553E-02   -0.1708563581604295E-04    0.1890299320585609E+00   -0.5498404037190697E+01   -0.3160005588341207E-05    0.4740089293298055E-09   -0.3215092775343820E-10    0.3176625629208729E-13    0.9345724155500335E-09
 -0.4894   0.1171    0.9557933966959260E-02    0.6917604658622417E-02   -0.1668080213273275E-04    0.1949904322134225E+00   -0.6439754355888992E+01   -0.3706985560262695E-05    0.4298996159057822E-09   -0.3711160545538661E-10   -0.9534040223968532E-13    0.1284221802250879E-08
 -0.4928   0.0847    0.7592842978723986E-02    0.7896869657573491E-02   -0.1552082303518246E-04    0.2015876813460518E+00   -0.7343126288817649E+01   -0.4233325162524881E-05    0.3685503360828513E-09   -0.4121242236365674E-10   -0.1847133557220104E-12    0.1556315873917080E-08
 -0.4962   0.0522    0.7315331942982343E-02    0.8785578946062713E-02   -0.1358792603997627E-04    0.2089813867180069E+00   -0.8160983886378675E+01   -0.4711368806066951E-05    0.2914773075679555E-09   -0.4404651643419299E-10   -0.2472119731145028E-12    0.1757342926560213E-08
 -0.4996   0.0196    0.8801152238425897E-02    0.9532764046745648E-02   -0.1089251180869046E-04    0.2172556164663188E+00   -0.8846425854677662E+01   -0.5113700775326232E-05    0.2012015415386870E-09   -0.4539257858482415E-10   -0.2853689506920887E-12    0.1895965683930412E-08
 -0.5030  -0.0128    0.1197629659100291E-01    0.1009067981837863E-01   -0.7468352230480944E-05    0.2264619444275113E+00   -0.9355688282563069E+01   -0.5414605177687270E-05    0.1013083679446414E-09   -0.4516559348743954E-10   -0.2746483596105520E-12    0.1979977091136342E-08
 -0.5064  -0.0449    0.1660313180777859E-01    0.1041734767511763E-01   -0.3375456607900850E-05    0.2366332151159721E+00   -0.9650484300227189E+01   -0.5591433748397139E-05   -0.4100663385242509E-11   -0.4348066351411717E-10   -0.2130205734030000E-12    0.2017056891304159E-08
 -0.5097  -0.0765    0.2228084055847575E-01    0.1047981871116367E-01    0.1274233236194222E-05    0.2477853741740475E+00   -0.9700983017524885E+01   -0.5626372645386214E-05   -0.1107425618221414E-09   -0.4053524182978663E-10   -0.1021526613298462E-12    0.2013503737005595E-08
 -0.5130  -0.1077    0.2846534086704584E-01    0.1025862914934616E-01    0.6290489427587503E-05    0.2599153481617948E+00   -0.9489878789021343E+01   -0.5508831458690575E-05   -0.2144917438107186E-09   -0.3660832748053622E-10    0.7310124727766265E-14    0.1974575454533056E-08
 -0.5162  -0.1381    0.3451412981475729E-01    0.9753023448433701E-02    0.1138399639636994E-04    0.2729981869124369E+00   -0.9017110545352489E+01   -0.5238290047422171E-05   -0.3118673652657833E-09   -0.3206440668535038E-10    0.1623423617758135E-12    0.1905168084057052E-08
 -0.5193  -0.1678    0.3975767599714967E-01    0.8985425255201962E-02    0.1617585960447254E-04    0.2869848650752713E+00   -0.8303885014286479E+01   -0.4826692602470400E-05   -0.4002098721866965E-09   -0.2724975800560969E-10    0.2951111577331744E-12    0.1810001482027701E-08
 -0.5223  -0.1965    0.4358989455079425E-01    0.8002979299555043E-02    0.2024424650864295E-04    0.3018013865452113E+00   -0.7393969677396307E+01   -0.4299337545797623E-05   -0.4779919793307386E-09   -0.2252548148007349E-10    0.4626993233003418E-12    0.1693536344146707E-08
 -0.5252  -0.2241    0.4555950972966807E-01    0.6874252901935215E-02    0.2320420997523524E-04    0.3173492067710856E+00   -0.6350609546567735E+01   -0.3693066349274985E-05   -0.5447580372908156E-09   -0.1820266160024175E-10    0.5623973509116809E-12    0.1560754645316131E-08
 -0.5280  -0.2506    0.4543751911683686E-01    0.5680676218434854E-02    0.2479871306775080E-04    0.3335062500457659E+00   -0.5248632550155780E+01   -0.3051718805736922E-05   -0.6009829439657111E-09   -0.1446992525799828E-10    0.6852574063742622E-12    0.1415704373175508E-08
 -0.5307  -0.2757    0.4324020039193115E-01    0.4504436225619421E-02    0.2495926245199666E-04    0.3501271542832830E+00   -0.4163421282612003E+01   -0.2419531149147784E-05   -0.6477027594820051E-09   -0.1144129235797209E-10    0.7546741009889502E-12    0.1263052534089537E-08
 -0.5332  -0.2995    0.3920157734664285E-01    0.3416254065554974E-02    0.2381876560677662E-04    0.3670412966735789E+00   -0.3159753148132579E+01   -0.1834627334018001E-05   -0.6862122953199545E-09   -0.9088424457459610E-11    0.8013312235988224E-12    0.1107684444168200E-08
 -0.5355  -0.3217    0.3370781173661313E-01    0.2466628821894725E-02    0.2165703728996143E-04    0.3840481121971241E+00   -0.2283887106737816E+01   -0.1324182047501587E-05   -0.7176883809467682E-09   -0.7317188521760443E-11    0.8170131238216527E-12    0.9533289054008964E-09
 -0.5377  -0.3424    0.2721739142039826E-01    0.1682637625817741E-02    0.1882305118558913E-04    0.4009112609959267E+00   -0.1560618039352031E+01   -0.9028195172508729E-06   -0.7431350118602964E-09   -0.5962882965171445E-11    0.8477663016037695E-12    0.8037685499812097E-09
 -0.5397  -0.3613    0.2019116691752394E-01    0.1070095714448915E-02    0.1563866944270768E-04    0.4173555360901815E+00   -0.9953063070619667E+00   -0.5736228689047299E-06   -0.7632566835502619E-09   -0.4878136089514484E-11    0.8338885137959551E-12    0.6613432284446885E-09
 -0.5415  -0.3785    0.1304603586775600E-01    0.6190827783239513E-03    0.1235296933898430E-04    0.4330714635157166E+00   -0.5788346244763454E+00   -0.3313070582849914E-06   -0.7786553138378061E-09   -0.3957254879685679E-11    0.8293643549706076E-12    0.5296482349925746E-09
 -0.5431  -0.3938    0.6134445424003408E-02    0.3102169654930386E-03    0.9110342952574826E-05    0.4477308696294163E+00   -0.2933959587988348E+00   -0.1653755865707583E-06   -0.7898961172647656E-09   -0.3143155874463233E-11    0.8182066135731247E-12    0.4097120958473921E-09
 -0.5445  -0.4073   -0.2577546884322316E-03    0.1195065662979036E-03    0.6007122339661085E-05    0.4610122481957359E+00   -0.1167854483680164E+00   -0.6302955841526567E-07   -0.7977007041026773E-09   -0.2435624618657428E-11    0.8166002596343702E-12    0.3035093469952455E-09
 -0.5457  -0.4187   -0.5905194638383109E-02    0.2080244423405045E-04    0.3135499684414825E-05    0.4726295677328000E+00   -0.2477380571642104E-01   -0.1012917676011671E-07   -0.8028329112619303E-09   -0.1865629178920969E-11    0.8027693093604071E-12    0.2119596486174768E-09
 -0.5467  -0.4282   -0.1063909851513019E-01   -0.1377633860193348E-04    0.7430201822315142E-06    0.4823553163289825E+00    0.8629959235585259E-02    0.8126236951793433E-08   -0.8063254612611370E-09   -0.1470552846161155E-11    0.8143607316268842E-12    0.1363649540508938E-09
 -0.5475  -0.4356   -0.1434971159952740E-01   -0.1322041852386786E-04   -0.8068823397326232E-06    0.4900302192573900E+00    0.1011499971193594E-01    0.7526523893914334E-08   -0.8090895479637150E-09   -0.1241513836180985E-11    0.8051896822902638E-12    0.7674413231642530E-10
 -0.5480  -0.4409   -0.1699232197051544E-01   -0.3916404532182680E-05   -0.1050765386626163E-05    0.4955577330467507E+00    0.3597790808712304E-02    0.2076827314837081E-08   -0.8124966858168159E-09   -0.1092794691542887E-11    0.8416474982231303E-12    0.3430097959139511E-10
 -0.5483  -0.4440   -0.1857505418760032E-01   -0.1045877338243221E-06   -0.1048696767627342E-06    0.4988880494952880E+00    0.5188598523496058E-03    0.9119013221901506E-10   -0.8163236303831804E-09   -0.5743046012710029E-12    0.5824622468370011E-12    0.8821237143519234E-11
 -0.5485  -0.4451   -0.1910476157362167E-01    0.0000000000000000E+00    0.0000000000000000E+00    0.5000000000000000E+00   -0.1320428751481105E-03    0.0000000000000000E+00    0.0000000000000000E+00    0.0000000000000000E+00    0.0000000000000000E+00    0.0000000000000000E+00
 -0.4407   0.5491    0.2452808848356178E-01    0.0000000000000000E+00    0.0000000000000000E+00   -0.5000000000000000E+00   -0.4343840695520081E-02    0.0000000000000000E+00    0.0000000000000000E+00    0.0000000000000000E+00    0.0000000000000000E+00    0.0000000000000000E+00
 -0.4409   0.5480    0.2505589981858287E-01    0.6982179997937033E-06   -0.3611164656253032E-05   -0.4960337606067483E+00   -0.2435312174416301E-02   -0.2073823800941543E-08    0.2831356084916775E-09    0.7433967178817336E-12    0.9747874707942417E-12   -0.4805493351335566E-11
 -0.4412   0.5448    0.2662213637971536E-01    0.5148101202631956E-05   -0.5148583262027230E-05   -0.4841537057456011E+00    0.2109983146939064E-02   -0.1909460705326170E-07    0.2844463718384982E-09    0.2211976478719291E-11    0.2340214393797835E-11   -0.1884828057518995E-10
 -0.4417   0.5395    0.2916797205412727E-01   -0.5377655346748984E-06    0.6620474602964984E-05   -0.4644256590021824E+00    0.8656600703177766E-02   -0.1917750510706095E-07    0.2865967879683851E-09    0.3062546743981542E-11    0.2833882434272184E-11   -0.4238913300230740E-10
 -0.4425   0.5321    0.3256562873143474E-01   -0.6136331473229096E-04    0.2710567938307667E-04   -0.4369902223083065E+00    0.2361703612881658E-01    0.1077448686119326E-06    0.2886030876086965E-09    0.3173062507189073E-11    0.2958295067245764E-11   -0.7624037685893814E-10
 -0.4435   0.5227    0.3659500923218120E-01   -0.2215902964748615E-03    0.4578174762643339E-04   -0.4021013659548668E+00    0.5647381120701876E-01    0.4620431897204392E-06    0.2902881407473856E-09    0.3079637239666866E-11    0.2933873630150963E-11   -0.1217754976717833E-09
 -0.4447   0.5112    0.4095555210686570E-01   -0.4885015972321105E-03    0.5536061743249679E-04   -0.3601680791447309E+00    0.1100751663275968E+00    0.1057386267727105E-05    0.2918766790760419E-09    0.3179343940895585E-11    0.2882522345815097E-11   -0.1821813221114521E-09
 -0.4461   0.4978    0.4529910457631188E-01   -0.8213506578725870E-03    0.5278153083234248E-04   -0.3118000068428992E+00    0.1767648480795529E+00    0.1801294170277629E-05    0.2938938363505894E-09    0.3668176873361517E-11    0.2829764200740215E-11   -0.2628884540611942E-09
 -0.4477   0.4825    0.4926509460672188E-01   -0.1138666698949899E-02    0.3802723820617098E-04   -0.2578701316111068E+00    0.2393839746721128E+00    0.2513983550966190E-05    0.2970866677665107E-09    0.4352178339939172E-11    0.2854355640735662E-11   -0.3713712393160762E-09