 title="result"
 variables="x","y","P","u","v","t","omega","psi","RES1","RES2","RES3","RES4"
zone,j= 49,i= 49,f=point
 -0.3435   0.6181    0.2550157812321471E-01    0.0000000000000000E+00    0.0000000000000000E+00   -0.5000000000000000E+00    0.0000000000000000E+00    0.0000000000000000E+00    0.0000000000000000E+00    0.0000000000000000E+00    0.0000000000000000E+00    0.0000000000000000E+00
 -0.3438   0.6170    0.2601283862171442E-01    0.0000000000000000E+00    0.0000000000000000E+00   -0.4955244436242415E+00    0.6230831173252949E-04    0.0000000000000000E+00    0.0000000000000000E+00    0.0000000000000000E+00    0.0000000000000000E+00    0.0000000000000000E+00
 -0.3447   0.6140    0.2751291504574123E-01    0.0000000000000000E+00    0.0000000000000000E+00   -0.4821192110801870E+00   -0.4267038758286348E-02    0.0000000000000000E+00    0.0000000000000000E+00    0.0000000000000000E+00    0.0000000000000000E+00    0.0000000000000000E+00
 -0.3461   0.6088    0.2993548262053539E-01    0.0000000000000000E+00    0.0000000000000000E+00   -0.4598622872957140E+00   -0.2249141381938179E-01    0.0000000000000000E+00    0.0000000000000000E+00    0.0000000000000000E+00    0.0000000000000000E+00    0.0000000000000000E+00
 -0.3482   0.6017    0.3318571368978903E-01    0.0000000000000000E+00    0.0000000000000000E+00   -0.4289300621174296E+00   -0.5559500686005133E-01    0.0000000000000000E+00    0.0000000000000000E+00    0.0000000000000000E+00    0.0000000000000000E+00    0.0000000000000000E+00
 -0.3508   0.5926    0.3709721536478680E-01    0.0000000000000000E+00    0.0000000000000000E+00   -0.3896684299226870E+00   -0.9633865646016214E-01    0.0000000000000000E+00    0.0000000000000000E+00    0.0000000000000000E+00    0.0000000000000000E+00    0.0000000000000000E+00
 -0.3539   0.5815    0.4142357135234218E-01    0.0000000000000000E+00    0.0000000000000000E+00   -0.3426895794642350E+00   -0.1353707266110241E+00    0.0000000000000000E+00    0.0000000000000000E+00    0.0000000000000000E+00    0.0000000000000000E+00    0.0000000000000000E+00
 -0.3576   0.5685    0.4584780495672844E-01    0.0000000000000000E+00    0.0000000000000000E+00   -0.2889817121982677E+00   -0.1649049763119154E+00    0.0000000000000000E+00    0.0000000000000000E+00    0.0000000000000000E+00    0.0000000000000000E+00    0.0000000000000000E+00
 -0.3619   0.5537    0.5000137005814111E-01    0.0000000000000000E+00    0.0000000000000000E+00   -0.2300074927299530E+00   -0.1818313316286091E+00    0.0000000000000000E+00    0.0000000000000000E+00    0.0000000000000000E+00    0.0000000000000000E+00    0.0000000000000000E+00
 -0.3666   0.5370    0.5349588584908799E-01    0.0000000000000000E+00    0.0000000000000000E+00   -0.1677560417522911E+00   -0.1905383129666461E+00    0.0000000000000000E+00    0.0000000000000000E+00    0.0000000000000000E+00    0.0000000000000000E+00    0.0000000000000000E+00
 -0.3719   0.5187    0.5596773325515308E-01    0.0000000000000000E+00    0.0000000000000000E+00   -0.1047083196308235E+00   -0.2049991546160163E+00    0.0000000000000000E+00    0.0000000000000000E+00    0.0000000000000000E+00    0.0000000000000000E+00    0.0000000000000000E+00
 -0.3776   0.4988    0.5713158749380687E-01    0.0000000000000000E+00    0.0000000000000000E+00   -0.4368234645376039E-01   -0.2479583618835985E+00    0.0000000000000000E+00    0.0000000000000000E+00    0.0000000000000000E+00    0.0000000000000000E+00    0.0000000000000000E+00
 -0.3837   0.4773    0.5682661972127320E-01    0.0000000000000000E+00    0.0000000000000000E+00    0.1245654773885459E-01   -0.3460196952730895E+00    0.0000000000000000E+00    0.0000000000000000E+00    0.0000000000000000E+00    0.0000000000000000E+00    0.0000000000000000E+00
 -0.3903   0.4543    0.5503689539636289E-01    0.0000000000000000E+00    0.0000000000000000E+00    0.6120376262955837E-01   -0.5225461272211009E+00    0.0000000000000000E+00    0.0000000000000000E+00    0.0000000000000000E+00    0.0000000000000000E+00    0.0000000000000000E+00
 -0.3972   0.4300    0.5187809881952610E-01    0.0000000000000000E+00    0.0000000000000000E+00    0.1008726094584801E+00   -0.7929051058928294E+00    0.0000000000000000E+00    0.0000000000000000E+00    0.0000000000000000E+00    0.0000000000000000E+00    0.0000000000000000E+00
 -0.4045   0.4044    0.4756240777708934E-01    0.0000000000000000E+00    0.0000000000000000E+00    0.1309604616069487E+00   -0.1164922973750595E+01    0.0000000000000000E+00    0.0000000000000000E+00    0.0000000000000000E+00    0.0000000000000000E+00    0.0000000000000000E+00
 -0.4121   0.3777    0.4236138253191755E-01    0.0000000000000000E+00    0.0000000000000000E+00    0.1522453235881266E+00   -0.1642582984992020E+01    0.0000000000000000E+00    0.0000000000000000E+00    0.0000000000000000E+00    0.0000000000000000E+00    0.0000000000000000E+00
 -0.4201   0.3499    0.3657994355843763E-01    0.0000000000000000E+00    0.0000000000000000E+00    0.1665097214273700E+00   -0.2228406282259894E+01    0.0000000000000000E+00    0.0000000000000000E+00    0.0000000000000000E+00    0.0000000000000000E+00    0.0000000000000000E+00
 -0.4282   0.3213    0.3054288866079284E-01    0.0000000000000000E+00    0.0000000000000000E+00    0.1759800556131418E+00   -0.2922199408324787E+01    0.0000000000000000E+00    0.0000000000000000E+00    0.0000000000000000E+00    0.0000000000000000E+00    0.0000000000000000E+00
 -0.4366   0.2918    0.2459013316509245E-01    0.0000000000000000E+00    0.0000000000000000E+00    0.1827380772275994E+00   -0.3717536524119969E+01    0.0000000000000000E+00    0.0000000000000000E+00    0.0000000000000000E+00    0.0000000000000000E+00    0.0000000000000000E+00
 -0.4452   0.2617    0.1907422855214545E-01    0.0000000000000000E+00    0.0000000000000000E+00    0.1883535614104021E+00   -0.4598649989650489E+01    0.0000000000000000E+00    0.0000000000000000E+00    0.0000000000000000E+00    0.0000000000000000E+00    0.0000000000000000E+00
 -0.4540   0.2311    0.1435264635440452E-01    0.0000000000000000E+00    0.0000000000000000E+00    0.1938148454803440E+00   -0.5539434717160899E+01    0.0000000000000000E+00    0.0000000000000000E+00    0.0000000000000000E+00    0.0000000000000000E+00    0.0000000000000000E+00
 -0.4629   0.2000    0.1076957339762255E-01    0.0000000000000000E+00    0.0000000000000000E+00    0.1996588296998448E+00   -0.6504780617880268E+01    0.0000000000000000E+00    0.0000000000000000E+00    0.0000000000000000E+00    0.0000000000000000E+00    0.0000000000000000E+00
 -0.4718   0.1687    0.8628120205700252E-02    0.0000000000000000E+00    0.0000000000000000E+00    0.2061511861940727E+00   -0.7453395953767381E+01    0.0000000000000000E+00    0.0000000000000000E+00    0.0000000000000000E+00    0.0000000000000000E+00    0.0000000000000000E+00
 -0.4808   0.1373    0.8158358820533373E-02    0.0000000000000000E+00    0.0000000000000000E+00    0.2134239430482527E+00   -0.8340891260462497E+01    0.0000000000000000E+00    0.0000000000000000E+00    0.0000000000000000E+00    0.0000000000000000E+00    0.0000000000000000E+00
 -0.4898   0.1058    0.9487069837947849E-02    0.0000000000000000E+00    0.0000000000000000E+00    0.2215513579292960E+00   -0.9122202602937589E+01    0.0000000000000000E+00    0.0000000000000000E+00    0.0000000000000000E+00    0.0000000000000000E+00    0.0000000000000000E+00
 -0.4987   0.0745    0.1261242435743070E-01    0.0000000000000000E+00    0.0000000000000000E+00    0.2305820634116313E+00   -0.9753167595054681E+01    0.0000000000000000E+00    0.0000000000000000E+00    0.0000000000000000E+00    0.0000000000000000E+00    0.0000000000000000E+00
 -0.5076   0.0435    0.1738489558629306E-01    0.0000000000000000E+00    0.0000000000000000E+00    0.2405489292958493E+00   -0.1019183729966955E+02    0.0000000000000000E+00    0.0000000000000000E+00    0.0000000000000000E+00    0.0000000000000000E+00    0.0000000000000000E+00
 -0.5163   0.0129    0.2349626050263982E-01    0.0000000000000000E+00    0.0000000000000000E+00    0.2514697584806336E+00   -0.1040051192042762E+02    0.0000000000000000E+00    0.0000000000000000E+00    0.0000000000000000E+00    0.0000000000000000E+00    0.0000000000000000E+00
 -0.5249  -0.0172    0.3048161288359463E-01    0.0000000000000000E+00    0.0000000000000000E+00    0.2633447806517704E+00   -0.1034936534217535E+02    0.0000000000000000E+00    0.0000000000000000E+00    0.0000000000000000E+00    0.0000000000000000E+00    0.0000000000000000E+00
 -0.5333  -0.0467    0.3774224655562673E-01    0.0000000000000000E+00    0.0000000000000000E+00    0.2761534032527241E+00   -0.1002181964196613E+02    0.0000000000000000E+00    0.0000000000000000E+00    0.0000000000000000E+00    0.0000000000000000E+00    0.0000000000000000E+00
 -0.5415  -0.0753    0.4459689032751895E-01    0.0000000000000000E+00    0.0000000000000000E+00    0.2898514216422538E+00   -0.9420734196408601E+01    0.0000000000000000E+00    0.0000000000000000E+00    0.0000000000000000E+00    0.0000000000000000E+00    0.0000000000000000E+00
 -0.5494  -0.1031    0.5036233684469738E-01    0.0000000000000000E+00    0.0000000000000000E+00    0.3043694227537793E+00   -0.8573329587231731E+01    0.0000000000000000E+00    0.0000000000000000E+00    0.0000000000000000E+00    0.0000000000000000E+00    0.0000000000000000E+00
 -0.5571  -0.1298    0.5445244381858121E-01    0.0000000000000000E+00    0.0000000000000000E+00    0.3196126776617975E+00   -0.7532252484502756E+01    0.0000000000000000E+00    0.0000000000000000E+00    0.0000000000000000E+00    0.0000000000000000E+00    0.0000000000000000E+00
 -0.5644  -0.1554    0.5647189956079021E-01    0.0000000000000000E+00    0.0000000000000000E+00    0.3354621594279267E+00   -0.6370879124088555E+01    0.0000000000000000E+00    0.0000000000000000E+00    0.0000000000000000E+00    0.0000000000000000E+00    0.0000000000000000E+00
 -0.5713  -0.1797    0.5627624778232297E-01    0.0000000000000000E+00    0.0000000000000000E+00    0.3517755579835377E+00   -0.5173001549920817E+01    0.0000000000000000E+00    0.0000000000000000E+00    0.0000000000000000E+00    0.0000000000000000E+00    0.0000000000000000E+00
 -0.5779  -0.2027    0.5397841890481075E-01    0.0000000000000000E+00    0.0000000000000000E+00    0.3683867111377081E+00   -0.4019507244723069E+01    0.0000000000000000E+00    0.0000000000000000E+00    0.0000000000000000E+00    0.0000000000000000E+00    0.0000000000000000E+00
 -0.5840  -0.2242    0.4990163738134304E-01    0.0000000000000000E+00    0.0000000000000000E+00    0.3851023036635647E+00   -0.2976190515187060E+01    0.0000000000000000E+00    0.0000000000000000E+00    0.0000000000000000E+00    0.0000000000000000E+00    0.0000000000000000E+00
 -0.5897  -0.2441    0.4449854067194186E-01    0.0000000000000000E+00    0.0000000000000000E+00    0.4016963633076785E+00   -0.2086300931383041E+01    0.0000000000000000E+00    0.0000000000000000E+00    0.0000000000000000E+00    0.0000000000000000E+00    0.0000000000000000E+00
 -0.5949  -0.2625    0.3826525559774003E-01    0.0000000000000000E+00    0.0000000000000000E+00    0.4179056239400121E+00   -0.1369307180912789E+01    0.0000000000000000E+00    0.0000000000000000E+00    0.0000000000000000E+00    0.0000000000000000E+00    0.0000000000000000E+00
 -0.5997  -0.2791    0.3167425031901667E-01    0.0000000000000000E+00    0.0000000000000000E+00    0.4334308324880907E+00   -0.8247536618703286E+00    0.0000000000000000E+00    0.0000000000000000E+00    0.0000000000000000E+00    0.0000000000000000E+00    0.0000000000000000E+00
 -0.6039  -0.2939    0.2513631478325060E-01    0.0000000000000000E+00    0.0000000000000000E+00    0.4479486543914195E+00   -0.4386018445778427E+00    0.0000000000000000E+00    0.0000000000000000E+00    0.0000000000000000E+00    0.0000000000000000E+00    0.0000000000000000E+00
 -0.6076  -0.3069    0.1898884050064201E-01    0.0000000000000000E+00    0.0000000000000000E+00    0.4611350215981692E+00   -0.1891015534946582E+00    0.0000000000000000E+00    0.0000000000000000E+00    0.0000000000000000E+00    0.0000000000000000E+00    0.0000000000000000E+00
 -0.6108  -0.3180    0.1349930258618587E-01    0.0000000000000000E+00    0.0000000000000000E+00    0.4726948835582433E+00   -0.5039714780055730E-01    0.0000000000000000E+00    0.0000000000000000E+00    0.0000000000000000E+00    0.0000000000000000E+00    0.0000000000000000E+00
 -0.6134  -0.3271    0.8870760888757202E-02    0.0000000000000000E+00    0.0000000000000000E+00    0.4823887524991654E+00    0.6658900935874288E-02    0.0000000000000000E+00    0.0000000000000000E+00    0.0000000000000000E+00    0.0000000000000000E+00    0.0000000000000000E+00
 -0.6154  -0.3342    0.5239898759401704E-02    0.0000000000000000E+00    0.0000000000000000E+00    0.4900465267723143E+00    0.1419825529566396E-01    0.0000000000000000E+00    0.0000000000000000E+00    0.0000000000000000E+00    0.0000000000000000E+00    0.0000000000000000E+00
 -0.6169  -0.3394    0.2667817561219138E-02    0.0000000000000000E+00    0.0000000000000000E+00    0.4955645451660199E+00    0.4697357591770360E-02    0.0000000000000000E+00    0.0000000000000000E+00    0.0000000000000000E+00    0.0000000000000000E+00    0.0000000000000000E+00
 -0.6178  -0.3425    0.1137708622395149E-02    0.0000000000000000E+00    0.0000000000000000E+00    0.4988897277835539E+00   -0.9034461904602794E-04    0.0000000000000000E+00    0.0000000000000000E+00    0.0000000000000000E+00    0.0000000000000000E+00    0.0000000000000000E+00
 -0.6181  -0.3435    0.6263993923293201E-03    0.0000000000000000E+00    0.0000000000000000E+00    0.5000000000000000E+00    0.0000000000000000E+00    0.0000000000000000E+00    0.0000000000000000E+00    0.0000000000000000E+00    0.0000000000000000E+00    0.0000000000000000E+00
 -0.3425   0.6178    0.2564968327333389E-01    0.0000000000000000E+00    0.0000000000000000E+00   -0.5000000000000000E+00    0.6219207625861218E-04    0.0000000000000000E+00    0.0000000000000000E+00    0.0000000000000000E+00    0.0000000000000000E+00    0.0000000000000000E+00
 -0.3428   0.6168    0.2616028748178195E-01    0.1479751071284644E-06   -0.1480311387196227E-06   -0.4955243299477244E+00   -0.5722483696465942E-03   -0.9570915800153108E-10    0.1985576764855848E-09    0.6588433141066496E-12    0.6757188125011693E-12   -0.8341056144389736E-11
 -0.3436   0.6137    0.2766052674261578E-01    0.4797968334650370E-05   -0.1341525972632226E-05   -0.4821187533085920E+00   -0.4930232328974558E-02   -0.2496840829163128E-08    0.2030707260333720E-09    0.1228902369405580E-11    0.9724417451839606E-12   -0.3232151482221446E-10
 -0.3451   0.6085    0.3008159565318128E-01    0.2294312154597454E-04   -0.2278838413224604E-05   -0.4598612393847618E+00   -0.2045262832332470E-01   -0.1251641636824467E-07    0.2072891580606750E-09    0.1202031529867753E-11    0.9319663096807318E-12   -0.7299384621045624E-10
 -0.3471   0.6014    0.3332413877908443E-01    0.5648738143603109E-04   -0.2515108563278067E-05   -0.4289281569224255E+00   -0.5002696493606276E-01   -0.3074892563306094E-07    0.2102098920278572E-09    0.9324485628070533E-12    0.9555134461436410E-12   -0.1302716354928402E-09
 -0.3497   0.5923    0.3722263380758881E-01    0.9862922397737729E-04   -0.2223028512401997E-05   -0.3896653938257320E+00   -0.8798000349590954E-01   -0.5359899105490735E-07    0.2123155349448291E-09    0.5563362270866179E-12    0.9729682337589196E-12   -0.2055453030003207E-09
 -0.3529   0.5812    0.4153225533270474E-01    0.1397439278011457E-03   -0.1606611627322723E-05   -0.3426851599831131E+00   -0.1257666511683314E+00   -0.7570317899797382E-07    0.2136767355935543E-09    0.2483534211616956E-12    0.9619527396864669E-12   -0.3010590422791726E-09
 -0.3566   0.5682    0.4593745738986969E-01    0.1716965571640472E-03   -0.9424385600566506E-06   -0.2889757167762219E+00   -0.1559209620837498E+00   -0.9276450836115596E-07    0.2150235922475374E-09    0.1523468851072352E-12    0.9104071663212920E-12   -0.4206251735805466E-09
 -0.3609   0.5534    0.5007124527439420E-01    0.1911851449127713E-03   -0.4357155771603206E-06   -0.2299998362940379E+00   -0.1754125515106836E+00   -0.1029407468322176E-06    0.2172033773542928E-09    0.3317658647805644E-12    0.9225688789304964E-12   -0.5689466398006715E-09
 -0.3656   0.5368    0.5354689801490537E-01    0.2027808317273335E-03   -0.3187518802117843E-06   -0.1677467945259379E+00   -0.1883695418779688E+00   -0.1087539397846843E-06    0.2215364159480204E-09    0.7702111518015364E-12    0.9124472011290408E-12   -0.7505212007430373E-09
 -0.3708   0.5184    0.5600237959370007E-01    0.2211232804637348E-03   -0.7539726278954396E-06   -0.1046977431454925E+00   -0.2081828255215714E+00   -0.1180561994180365E-06    0.2293903649929624E-09    0.1371548707940207E-11    0.9194988520588865E-12   -0.9666150102560778E-09
 -0.3765   0.4985    0.5715346637908470E-01    0.2700971479713418E-03   -0.1804352290484605E-05   -0.4367090845848398E-01   -0.2567153920624403E+00   -0.1437461566604766E-06    0.2423160725892326E-09    0.2037852525615946E-11    0.9146312179852956E-12   -0.1208778951933276E-08
 -0.3827   0.4770    0.5683963596803179E-01    0.3777122761287651E-03   -0.3353509774322717E-05    0.1246818758244038E-01   -0.3596997604583548E+00   -0.2008756615661813E-06    0.2617210909799939E-09    0.2669447995984342E-11    0.8699152509450414E-12   -0.1453600392831156E-08
 -0.3892   0.4540    0.5504460445564295E-01    0.5686688846439388E-03   -0.5185181811447645E-05    0.6121481357108743E-01   -0.5399118893419876E+00   -0.3027404193485150E-06    0.2886016217673593E-09    0.3174717433385155E-11    0.8658629369051596E-12   -0.1660393531000004E-08
 -0.3962   0.4297    0.5188350137239888E-01    0.8593190599205629E-03   -0.7081359376825461E-05    0.1008822792172603E+00   -0.8125413295065559E+00   -0.4580965100963326E-06    0.3228760158541233E-09    0.3437534978889545E-11    0.7994646611386713E-12   -0.1777041722106354E-08
 -0.4035   0.4041    0.4756811758567824E-01    0.1258047975338640E-02   -0.8937574522113271E-05    0.1309681448133005E+00   -0.1185425494010771E+01   -0.6714423345835746E-06    0.3629960707018931E-09    0.3323924469000872E-11    0.7369729826400828E-12   -0.1755603440400932E-08
 -0.4111   0.3774    0.4236970306456703E-01    0.1769070089488337E-02   -0.1073522683127157E-04    0.1522507736034973E+00   -0.1662458972381155E+01   -0.9450347324702899E-06    0.4059709859949301E-09    0.2658338826844187E-11    0.7010919622629785E-12   -0.1572197358412630E-08
 -0.4190   0.3496    0.3659264947385207E-01    0.2394892372000931E-02   -0.1247683970682046E-04    0.1665130998958987E+00   -0.2245801846775282E+01   -0.1280255185963420E-05    0.4480879001178550E-09    0.1217435874334427E-11    0.6052519596622119E-12   -0.1238677108800212E-08
 -0.4272   0.3210    0.3056082534207705E-01    0.3134999663817930E-02   -0.1410509798077467E-04    0.1759818185448122E+00   -0.2934685538088127E+01   -0.1676879640169083E-05    0.4855267542180908E-09   -0.1234633922875261E-11    0.4908157213989739E-12   -0.8004401707423225E-09
 -0.4356   0.2915    0.2461295955034837E-01    0.3982175494322547E-02   -0.1550555611126564E-04    0.1827387690920778E+00   -0.3722052313806554E+01   -0.2131106613511225E-05    0.5150459746194880E-09   -0.4870664635503452E-11    0.3857331121182028E-12   -0.3178110699955661E-09
 -0.4442   0.2614    0.1910040137744314E-01    0.4919269256091040E-02   -0.1652624710663738E-04    0.1883536398329512E+00   -0.4591628316142327E+01   -0.2633804952409024E-05    0.5339697121964360E-09   -0.9688885110881174E-11    0.2891159534001986E-12    0.1536097171770529E-09
 -0.4530   0.2308    0.1437964516283187E-01    0.5918208313159597E-02   -0.1702880164021409E-04    0.1938146086628912E+00   -0.5517073344806883E+01   -0.3169968419697383E-05    0.5400263083932266E-09   -0.1550717887432995E-10    0.1808830862870536E-12    0.5763480712649149E-09
 -0.4618   0.1998    0.1079420627418472E-01    0.6941471994568953E-02   -0.1690726967343391E-04    0.1996584333670748E+00   -0.6463400001071567E+01   -0.3719505702446990E-05    0.5312636441878738E-09   -0.2192140913237495E-10    0.6529499163576702E-13    0.9325856749169137E-09
 -0.4708   0.1684    0.8646834722417342E-02    0.7945124630268394E-02   -0.1610456892314698E-04    0.2061506956543029E+00   -0.7389820580026190E+01   -0.4258845894962258E-05    0.5061138418083200E-09   -0.2838548840422561E-10   -0.2513267371995198E-13    0.1218402370314897E-08
 -0.4798   0.1370    0.8167437665328797E-02    0.8882101141945370E-02   -0.1459363710917846E-04    0.2134233788859473E+00   -0.8252794909007111E+01   -0.4762722443044292E-05    0.4638180915728096E-09   -0.3439626361512182E-10   -0.8094913628298173E-13    0.1437321039965411E-08
 -0.4887   0.1056    0.9482738559114981E-02    0.9704775774691827E-02   -0.1236718138043717E-04    0.2215507228668217E+00   -0.9008414319324611E+01   -0.5205523880526532E-05    0.4044223810006908E-09   -0.3947642213120162E-10   -0.1624672618660838E-12    0.1596262446008911E-08
 -0.4977   0.0742    0.1259086612837595E-01    0.1036663118201384E-01   -0.9418349993490826E-05    0.2305813546496620E+00   -0.9613933480517396E+01   -0.5562225684575729E-05    0.3291918404535465E-09   -0.4332495473491349E-10   -0.1556185735829274E-12    0.1701869428369363E-08
 -0.5065   0.0432    0.1734230698559184E-01    0.1082365011282361E-01   -0.5751270612162368E-05    0.2405481434306984E+00   -0.1002907127705697E+02   -0.5809095693751269E-05    0.2403785521326585E-09   -0.4581163226546892E-10   -0.1331434962281719E-12    0.1760824113253290E-08
 -0.5153   0.0126    0.2342899258543555E-01    0.1103647117163865E-01   -0.1397381083020801E-05    0.2514688934402450E+00   -0.1021798775001277E+02   -0.5924901075878657E-05    0.1410232811603629E-09   -0.4688877064396024E-10   -0.7573715959940941E-13    0.1778651595799041E-08
 -0.5239  -0.0175    0.3038652307687523E-01    0.1097420322188602E-01    0.3541376773381186E-05    0.2633438364752967E+00   -0.1015280325938476E+02   -0.5892905511639898E-05    0.3472957772060470E-10   -0.4662858987813934E-10    0.4590078317434632E-14    0.1760686390087085E-08
 -0.5323  -0.0470    0.3761720757085903E-01    0.1062004939897558E-01    0.8860339560507152E-05    0.2761523821791426E+00   -0.9818710637481992E+01   -0.5703967176486629E-05   -0.7461184101109630E-10   -0.4515166018848049E-10    0.1257743909022224E-12    0.1711735394052671E-08
 -0.5405  -0.0756    0.4444142767075658E-01    0.9977738822528394E-02    0.1422678990679399E-04    0.2898503274922052E+00   -0.9219825012076853E+01   -0.5359942451723716E-05   -0.1830620446896525E-09   -0.4260447550308299E-10    0.2005201560351111E-12    0.1636220181913672E-08
 -0.5484  -0.1034    0.5017813748568736E-01    0.9076587590421415E-02    0.1920436417893524E-04    0.3043682595946450E+00   -0.8383687895168059E+01   -0.4876516036333301E-05   -0.2869245674386178E-09   -0.3920186397721181E-10    0.2969846590872294E-12    0.1538940707507264E-08
 -0.5560  -0.1301    0.5424357445425367E-01    0.7972492605355909E-02    0.2331452551680035E-04    0.3196114480421595E+00   -0.7362089305448167E+01   -0.4283663622934435E-05   -0.3828891301238535E-09   -0.3514633029055858E-10    0.3996664110772485E-12    0.1424251203085980E-08
 -0.5633  -0.1557    0.5624447959989614E-01    0.6742913481208064E-02    0.2614448253318681E-04    0.3354608629352329E+00   -0.6226353751789054E+01   -0.3623072616922516E-05   -0.4684054741299626E-09   -0.3068062470745758E-10    0.4845429613098418E-12    0.1296470097944535E-08
 -0.5703  -0.1800    0.5603766505626414E-01    0.5476027206110659E-02    0.2744475242927760E-04    0.3517741912874493E+00   -0.5057433408048817E+01   -0.2942177885955809E-05   -0.5418657397782134E-09   -0.2606626026135928E-10    0.5233313782326832E-12    0.1160642066830309E-08
 -0.5768  -0.2030    0.5373620241011409E-01    0.4256802513505218E-02    0.2719432806394030E-04    0.3683852707130151E+00   -0.3933165176116157E+01   -0.2286790749730922E-05   -0.6026708090911548E-09   -0.2154218470273861E-10    0.5408173908705294E-12    0.1021260912642541E-08
 -0.5830  -0.2245    0.4966243912091758E-01    0.3154291772536488E-02    0.2558496754654960E-04    0.3851007916974473E+00   -0.2916774065282281E+01   -0.1694071614268093E-05   -0.6511541930653841E-09   -0.1730837695390619E-10    0.5848377337969168E-12    0.8812629376242498E-09
 -0.5887  -0.2444    0.4426741675245181E-01    0.2213883441400421E-02    0.2295315542835880E-04    0.4016947957962934E+00   -0.2049785323230919E+01   -0.1188533507346166E-05   -0.6883731154538886E-09   -0.1348894607122730E-10    0.5666855873442955E-12    0.7451911830658187E-09
 -0.5939  -0.2628    0.3804553077088119E-01    0.1456023367096235E-02    0.1966990647050349E-04    0.4179040380789760E+00   -0.1350951057458628E+01   -0.7811252424380083E-06   -0.7157252290834748E-09   -0.1015484224486940E-10    0.5253714130404319E-12    0.6160114467135269E-09
 -0.5987  -0.2794    0.3146774560328923E-01    0.8802425221673326E-03    0.1605633162531850E-04    0.4334292891910799E+00   -0.8198222392293345E+00   -0.4716714701752304E-06   -0.7348703971732373E-09   -0.7332287554895345E-11    0.5591915819280757E-12    0.4948166546642208E-09
 -0.6029  -0.2942    0.2494390137211649E-01    0.4717459686407029E-03    0.1232762422103394E-04    0.4479472323362406E+00   -0.4428359674038131E+00   -0.2521156681988978E-06   -0.7474213851998979E-09   -0.5033288022482374E-11    0.5466252450680997E-12    0.3841736668369622E-09
 -0.6066  -0.3072    0.1881079729284297E-01    0.2075189984352651E-03    0.8617948018934038E-05    0.4611338020826807E+00   -0.1986987359974345E+00   -0.1102094550302324E-06   -0.7550078270912586E-09   -0.3256828834397041E-11    0.5602046604380462E-12    0.2853143728220875E-09
 -0.6098  -0.3183    0.1333539901341508E-01    0.6004128968358713E-04    0.5046487907249763E-05    0.4726939297878485E+00   -0.6191741376559330E-01   -0.3104377989508461E-07   -0.7591248723376465E-09   -0.2009409999503831E-11    0.5677888714750168E-12    0.1996551127550483E-09
 -0.6124  -0.3274    0.8719536908936808E-02   -0.1773436935040709E-05    0.1883231474303616E-05    0.4823880907048343E+00   -0.3456455338688964E-02    0.1848712812958582E-08   -0.7613502159449503E-09   -0.1267055904641268E-11    0.5866418462119327E-12    0.1286808541667295E-09
 -0.6144  -0.3345    0.5097376494443849E-02   -0.1210381113184064E-04   -0.3955480383354343E-06    0.4900461374550177E+00    0.8251304043423001E-02    0.7080925661098405E-08   -0.7629272430823009E-09   -0.9251020088862916E-12    0.5899858509725298E-12    0.7264806508103239E-10
 -0.6159  -0.3397    0.2526139879859994E-02   -0.4509460074606532E-05   -0.1130877987279747E-05    0.4955643691115956E+00    0.3808998694765856E-02    0.2439870768795893E-08   -0.7652315404602095E-09   -0.8008294548333961E-12    0.6324597963403011E-12    0.3202255518044983E-10
 -0.6168  -0.3428    0.9937039069856373E-03   -0.1603876801064039E-06   -0.1605579966220097E-06    0.4988896836045076E+00    0.6247027705563960E-03    0.1372489633709871E-09   -0.7680499262844101E-09   -0.4145681194167583E-12    0.4435182689860317E-12    0.8147041147179429E-11
 -0.6170  -0.3438    0.4822310357046528E-03    0.0000000000000000E+00    0.0000000000000000E+00    0.5000000000000000E+00   -0.8986098854383044E-04    0.0000000000000000E+00    0.0000000000000000E+00    0.0000000000000000E+00    0.0000000000000000E+00    0.0000000000000000E+00
 -0.3394   0.6169    0.2609731802361372E-01    0.0000000000000000E+00    0.0000000000000000E+00   -0.5000000000000000E+00   -0.4265806592494121E-02    0.0000000000000000E+00    0.0000000000000000E+00    0.0000000000000000E+00    0.0000000000000000E+00    0.0000000000000000E+00
 -0.3397   0.6159    0.2660382108533314E-01    0.1340694584173932E-05   -0.4796783926965505E-05   -0.4955226411813608E+00   -0.4929108374498348E-02   -0.2496150313240011E-08    0.2027992418093816E-09    0.9397370577014785E-12    0.1264511065302010E-11   -0.8179192783133726E-11
 -0.3405   0.6128    0.2809814794229381E-01    0.1851382538249805E-04   -0.1851747144273877E-04   -0.4821119697613481E+00   -0.7378816777037287E-02   -0.4068242816011759E-07    0.2045737936690051E-09    0.2819228574549304E-11    0.3082536829956961E-11   -0.3217401171873302E-10
 -0.3420   0.6077    0.3051090712027859E-01    0.7872368139656650E-04   -0.3202164105802588E-04   -0.4598457868363623E+00   -0.1607605245542735E-01   -0.1805620349696519E-06    0.2074857230471849E-09    0.3685509362971739E-11    0.3803504386445944E-11   -0.7293711901806832E-10
 -0.3441   0.6005    0.3373233743968349E-01    0.1936019892762016E-03   -0.3699704406230252E-04   -0.4289001796368337E+00   -0.3617457732336226E-01   -0.4436599606768505E-06    0.2102174129214873E-09    0.3289757355418033E-11    0.4030954389722119E-11   -0.1301275146664560E-09
 -0.3467   0.5914    0.3759501583900095E-01    0.3456238030901231E-03   -0.3367073514558857E-04   -0.3896208776438586E+00   -0.6626683707189761E-01   -0.7840860945297219E-06    0.2123138453241635E-09    0.2303053581176329E-11    0.3986116992038546E-11   -0.2052009603903393E-09
 -0.3498   0.5803    0.4185732708451329E-01    0.5021120458390915E-03   -0.2542248240416902E-04   -0.3426203071377964E+00   -0.1003556236123559E+00   -0.1126090596819668E-05    0.2138719965016911E-09    0.1447834907519763E-11    0.3869164537373404E-11   -0.3007695273393729E-09
 -0.3535   0.5673    0.4620780523599698E-01    0.6333477077145295E-03   -0.1598494290211054E-04   -0.2888875376036774E+00   -0.1321918813795055E+00   -0.1403510128496386E-05    0.2154356927228096E-09    0.1332305793466659E-11    0.3701298816050080E-11   -0.4201316239349495E-09
 -0.3578   0.5525    0.5028404366057437E-01    0.7267111786250302E-03   -0.8850763105843652E-05   -0.2298869105546830E+00   -0.1589778977022047E+00   -0.1588643265964008E-05    0.2179000773219752E-09    0.2218985412083541E-11    0.3588619852668007E-11   -0.5685369328101153E-09