 title="result"
 variables="x","y","P","u","v","t","omega","psi","RES1","RES2","RES3","RES4"
zone,j= 49,i= 49,f=point
 -0.2534   0.6601    0.2517412717434463E-01    0.0000000000000000E+00    0.0000000000000000E+00   -0.5000000000000000E+00    0.0000000000000000E+00    0.0000000000000000E+00    0.0000000000000000E+00    0.0000000000000000E+00    0.0000000000000000E+00    0.0000000000000000E+00
 -0.2538   0.6592    0.2566035751677485E-01    0.0000000000000000E+00    0.0000000000000000E+00   -0.4951491204868451E+00    0.3360140144561086E-03    0.0000000000000000E+00    0.0000000000000000E+00    0.0000000000000000E+00    0.0000000000000000E+00    0.0000000000000000E+00
 -0.2551   0.6562    0.2706976117919941E-01    0.0000000000000000E+00    0.0000000000000000E+00   -0.4806200758147757E+00   -0.4550532279128929E-02    0.0000000000000000E+00    0.0000000000000000E+00    0.0000000000000000E+00    0.0000000000000000E+00    0.0000000000000000E+00
 -0.2573   0.6514    0.2932555096060024E-01    0.0000000000000000E+00    0.0000000000000000E+00   -0.4565009239344512E+00   -0.3717347631365752E-01    0.0000000000000000E+00    0.0000000000000000E+00    0.0000000000000000E+00    0.0000000000000000E+00    0.0000000000000000E+00
 -0.2603   0.6446    0.3237229914848121E-01    0.0000000000000000E+00    0.0000000000000000E+00   -0.4229994689576277E+00   -0.1121499158084833E+00    0.0000000000000000E+00    0.0000000000000000E+00    0.0000000000000000E+00    0.0000000000000000E+00    0.0000000000000000E+00
 -0.2642   0.6359    0.3611223186758603E-01    0.0000000000000000E+00    0.0000000000000000E+00   -0.3805447692628540E+00   -0.2242524459608794E+00    0.0000000000000000E+00    0.0000000000000000E+00    0.0000000000000000E+00    0.0000000000000000E+00    0.0000000000000000E+00
 -0.2689   0.6254    0.4035922049713498E-01    0.0000000000000000E+00    0.0000000000000000E+00   -0.3299333154436785E+00   -0.3543003999963215E+00    0.0000000000000000E+00    0.0000000000000000E+00    0.0000000000000000E+00    0.0000000000000000E+00    0.0000000000000000E+00
 -0.2744   0.6130    0.4482769979868207E-01    0.0000000000000000E+00    0.0000000000000000E+00   -0.2724886036398562E+00   -0.4766602459521983E+00    0.0000000000000000E+00    0.0000000000000000E+00    0.0000000000000000E+00    0.0000000000000000E+00    0.0000000000000000E+00
 -0.2807   0.5989    0.4914162414024804E-01    0.0000000000000000E+00    0.0000000000000000E+00   -0.2101685814267150E+00   -0.5681180629116329E+00    0.0000000000000000E+00    0.0000000000000000E+00    0.0000000000000000E+00    0.0000000000000000E+00    0.0000000000000000E+00
 -0.2877   0.5832    0.5287197439864355E-01    0.0000000000000000E+00    0.0000000000000000E+00   -0.1455434590443880E+00   -0.6169130073261505E+00    0.0000000000000000E+00    0.0000000000000000E+00    0.0000000000000000E+00    0.0000000000000000E+00    0.0000000000000000E+00
 -0.2954   0.5658    0.5559786121918123E-01    0.0000000000000000E+00    0.0000000000000000E+00   -0.8159869256192259E-01   -0.6299839080187014E+00    0.0000000000000000E+00    0.0000000000000000E+00    0.0000000000000000E+00    0.0000000000000000E+00    0.0000000000000000E+00
 -0.3039   0.5468    0.5698467046779346E-01    0.0000000000000000E+00    0.0000000000000000E+00   -0.2138655446892298E-01   -0.6342800809276173E+00    0.0000000000000000E+00    0.0000000000000000E+00    0.0000000000000000E+00    0.0000000000000000E+00    0.0000000000000000E+00
 -0.3130   0.5264    0.5685099450244740E-01    0.0000000000000000E+00    0.0000000000000000E+00    0.3238949499242511E-01   -0.6693350485295176E+00    0.0000000000000000E+00    0.0000000000000000E+00    0.0000000000000000E+00    0.0000000000000000E+00    0.0000000000000000E+00
 -0.3227   0.5045    0.5519466754357506E-01    0.0000000000000000E+00    0.0000000000000000E+00    0.7775989324848703E-01   -0.7739072071057842E+00    0.0000000000000000E+00    0.0000000000000000E+00    0.0000000000000000E+00    0.0000000000000000E+00    0.0000000000000000E+00
 -0.3330   0.4814    0.5216485626931316E-01    0.0000000000000000E+00    0.0000000000000000E+00    0.1137677221585415E+00   -0.9748564728463157E+00    0.0000000000000000E+00    0.0000000000000000E+00    0.0000000000000000E+00    0.0000000000000000E+00    0.0000000000000000E+00
 -0.3438   0.4571    0.4800351899287867E-01    0.0000000000000000E+00    0.0000000000000000E+00    0.1405807098004864E+00   -0.1284899011828968E+01    0.0000000000000000E+00    0.0000000000000000E+00    0.0000000000000000E+00    0.0000000000000000E+00    0.0000000000000000E+00
 -0.3551   0.4318    0.4299229225319879E-01    0.0000000000000000E+00    0.0000000000000000E+00    0.1593825377767111E+00   -0.1707721373105216E+01    0.0000000000000000E+00    0.0000000000000000E+00    0.0000000000000000E+00    0.0000000000000000E+00    0.0000000000000000E+00
 -0.3668   0.4054    0.3742557417241941E-01    0.0000000000000000E+00    0.0000000000000000E+00    0.1720349501471757E+00   -0.2243439520601651E+01    0.0000000000000000E+00    0.0000000000000000E+00    0.0000000000000000E+00    0.0000000000000000E+00    0.0000000000000000E+00
 -0.3789   0.3782    0.3160480467186198E-01    0.0000000000000000E+00    0.0000000000000000E+00    0.1806025472925843E+00   -0.2889721394378254E+01    0.0000000000000000E+00    0.0000000000000000E+00    0.0000000000000000E+00    0.0000000000000000E+00    0.0000000000000000E+00
 -0.3914   0.3502    0.2584169396689294E-01    0.0000000000000000E+00    0.0000000000000000E+00    0.1869154024152045E+00   -0.3639452865806817E+01    0.0000000000000000E+00    0.0000000000000000E+00    0.0000000000000000E+00    0.0000000000000000E+00    0.0000000000000000E+00
 -0.4041   0.3216    0.2046052603317979E-01    0.0000000000000000E+00    0.0000000000000000E+00    0.1923225555508213E+00   -0.4478027146312741E+01    0.0000000000000000E+00    0.0000000000000000E+00    0.0000000000000000E+00    0.0000000000000000E+00    0.0000000000000000E+00
 -0.4171   0.2925    0.1579402472474890E-01    0.0000000000000000E+00    0.0000000000000000E+00    0.1976701596859009E+00   -0.5382274875213251E+01    0.0000000000000000E+00    0.0000000000000000E+00    0.0000000000000000E+00    0.0000000000000000E+00    0.0000000000000000E+00
 -0.4302   0.2630    0.1216921526699704E-01    0.0000000000000000E+00    0.0000000000000000E+00    0.2034227266236740E+00   -0.6321334381374994E+01    0.0000000000000000E+00    0.0000000000000000E+00    0.0000000000000000E+00    0.0000000000000000E+00    0.0000000000000000E+00
 -0.4435   0.2332    0.9884628062540313E-02    0.0000000000000000E+00    0.0000000000000000E+00    0.2098155618850290E+00   -0.7258807185819375E+01    0.0000000000000000E+00    0.0000000000000000E+00    0.0000000000000000E+00    0.0000000000000000E+00    0.0000000000000000E+00
 -0.4568   0.2034    0.9183097964099890E-02    0.0000000000000000E+00    0.0000000000000000E+00    0.2169697185582349E+00   -0.8155130308679796E+01    0.0000000000000000E+00    0.0000000000000000E+00    0.0000000000000000E+00    0.0000000000000000E+00    0.0000000000000000E+00
 -0.4701   0.1735    0.1022506258749729E-01    0.0000000000000000E+00    0.0000000000000000E+00    0.2249559099727396E+00   -0.8969326719036362E+01    0.0000000000000000E+00    0.0000000000000000E+00    0.0000000000000000E+00    0.0000000000000000E+00    0.0000000000000000E+00
 -0.4833   0.1437    0.1306438661678893E-01    0.0000000000000000E+00    0.0000000000000000E+00    0.2338220229425203E+00   -0.9659867580742239E+01    0.0000000000000000E+00    0.0000000000000000E+00    0.0000000000000000E+00    0.0000000000000000E+00    0.0000000000000000E+00
 -0.4964   0.1143    0.1762704347590511E-01    0.0000000000000000E+00    0.0000000000000000E+00    0.2436016712167416E+00   -0.1018515432261511E+02    0.0000000000000000E+00    0.0000000000000000E+00    0.0000000000000000E+00    0.0000000000000000E+00    0.0000000000000000E+00
 -0.5094   0.0851    0.2369308939392064E-01    0.0000000000000000E+00    0.0000000000000000E+00    0.2543146638021217E+00   -0.1050460721537544E+02    0.0000000000000000E+00    0.0000000000000000E+00    0.0000000000000000E+00    0.0000000000000000E+00    0.0000000000000000E+00
 -0.5221   0.0565    0.3088595423725990E-01    0.0000000000000000E+00    0.0000000000000000E+00    0.2659644436440540E+00   -0.1058146650228527E+02    0.0000000000000000E+00    0.0000000000000000E+00    0.0000000000000000E+00    0.0000000000000000E+00    0.0000000000000000E+00
 -0.5346   0.0286    0.3867726720434891E-01    0.0000000000000000E+00    0.0000000000000000E+00    0.2785346408478255E+00   -0.1038790177304532E+02    0.0000000000000000E+00    0.0000000000000000E+00    0.0000000000000000E+00    0.0000000000000000E+00    0.0000000000000000E+00
 -0.5467   0.0013    0.4641806843932929E-01    0.0000000000000000E+00    0.0000000000000000E+00    0.2919858622857984E+00   -0.9912049225841420E+01    0.0000000000000000E+00    0.0000000000000000E+00    0.0000000000000000E+00    0.0000000000000000E+00    0.0000000000000000E+00
 -0.5585  -0.0250    0.5340383902523970E-01    0.0000000000000000E+00    0.0000000000000000E+00    0.3062535131779525E+00   -0.9165201624811102E+01    0.0000000000000000E+00    0.0000000000000000E+00    0.0000000000000000E+00    0.0000000000000000E+00    0.0000000000000000E+00
 -0.5698  -0.0504    0.5897009894269808E-01    0.0000000000000000E+00    0.0000000000000000E+00    0.3212471352908025E+00   -0.8186303576233792E+01    0.0000000000000000E+00    0.0000000000000000E+00    0.0000000000000000E+00    0.0000000000000000E+00    0.0000000000000000E+00
 -0.5806  -0.0747    0.6259962556774940E-01    0.0000000000000000E+00    0.0000000000000000E+00    0.3368511688027418E+00   -0.7040810421537700E+01    0.0000000000000000E+00    0.0000000000000000E+00    0.0000000000000000E+00    0.0000000000000000E+00    0.0000000000000000E+00
 -0.5909  -0.0978    0.6401035048931317E-01    0.0000000000000000E+00    0.0000000000000000E+00    0.3529262383332426E+00   -0.5812629190806918E+01    0.0000000000000000E+00    0.0000000000000000E+00    0.0000000000000000E+00    0.0000000000000000E+00    0.0000000000000000E+00
 -0.6006  -0.1196    0.6319412768122286E-01    0.0000000000000000E+00    0.0000000000000000E+00    0.3693093839011538E+00   -0.4590648375109160E+01    0.0000000000000000E+00    0.0000000000000000E+00    0.0000000000000000E+00    0.0000000000000000E+00    0.0000000000000000E+00
 -0.6097  -0.1401    0.6039365334153168E-01    0.0000000000000000E+00    0.0000000000000000E+00    0.3858117190661751E+00   -0.3454014434000138E+01    0.0000000000000000E+00    0.0000000000000000E+00    0.0000000000000000E+00    0.0000000000000000E+00    0.0000000000000000E+00
 -0.6181  -0.1590    0.5602942169474007E-01    0.0000000000000000E+00    0.0000000000000000E+00    0.4022133555696999E+00   -0.2460875891473698E+01    0.0000000000000000E+00    0.0000000000000000E+00    0.0000000000000000E+00    0.0000000000000000E+00    0.0000000000000000E+00
 -0.6259  -0.1764    0.5060600792378659E-01    0.0000000000000000E+00    0.0000000000000000E+00    0.4182580139963500E+00   -0.1643687925194682E+01    0.0000000000000000E+00    0.0000000000000000E+00    0.0000000000000000E+00    0.0000000000000000E+00    0.0000000000000000E+00
 -0.6329  -0.1922    0.4462871281611377E-01    0.0000000000000000E+00    0.0000000000000000E+00    0.4336523289913095E+00   -0.1011060215169491E+01    0.0000000000000000E+00    0.0000000000000000E+00    0.0000000000000000E+00    0.0000000000000000E+00    0.0000000000000000E+00
 -0.6392  -0.2063    0.3854927440639985E-01    0.0000000000000000E+00    0.0000000000000000E+00    0.4480753367935277E+00   -0.5538060428412082E+00    0.0000000000000000E+00    0.0000000000000000E+00    0.0000000000000000E+00    0.0000000000000000E+00    0.0000000000000000E+00
 -0.6447  -0.2186    0.3274335864926182E-01    0.0000000000000000E+00    0.0000000000000000E+00    0.4612003846625618E+00   -0.2516468788913370E+00    0.0000000000000000E+00    0.0000000000000000E+00    0.0000000000000000E+00    0.0000000000000000E+00    0.0000000000000000E+00
 -0.6493  -0.2292    0.2750959436075587E-01    0.0000000000000000E+00    0.0000000000000000E+00    0.4727254499564348E+00   -0.7798199234226569E-01    0.0000000000000000E+00    0.0000000000000000E+00    0.0000000000000000E+00    0.0000000000000000E+00    0.0000000000000000E+00
 -0.6532  -0.2378    0.2307508345365082E-01    0.0000000000000000E+00    0.0000000000000000E+00    0.4824020891683547E+00   -0.1403309383319271E-02    0.0000000000000000E+00    0.0000000000000000E+00    0.0000000000000000E+00    0.0000000000000000E+00    0.0000000000000000E+00
 -0.6562  -0.2446    0.1959375044628516E-01    0.0000000000000000E+00    0.0000000000000000E+00    0.4900521620302675E+00    0.1385306087889986E-01    0.0000000000000000E+00    0.0000000000000000E+00    0.0000000000000000E+00    0.0000000000000000E+00    0.0000000000000000E+00
 -0.6584  -0.2495    0.1713571556539705E-01    0.0000000000000000E+00    0.0000000000000000E+00    0.4955667222266429E+00    0.5322435673731782E-02    0.0000000000000000E+00    0.0000000000000000E+00    0.0000000000000000E+00    0.0000000000000000E+00    0.0000000000000000E+00
 -0.6597  -0.2524    0.1568047919194043E-01    0.0000000000000000E+00    0.0000000000000000E+00    0.4988902530016641E+00   -0.5898315221215163E-04    0.0000000000000000E+00    0.0000000000000000E+00    0.0000000000000000E+00    0.0000000000000000E+00    0.0000000000000000E+00
 -0.6601  -0.2534    0.1519537182977735E-01    0.0000000000000000E+00    0.0000000000000000E+00    0.5000000000000000E+00    0.0000000000000000E+00    0.0000000000000000E+00    0.0000000000000000E+00    0.0000000000000000E+00    0.0000000000000000E+00    0.0000000000000000E+00
 -0.2524   0.6597    0.2539222847940939E-01    0.0000000000000000E+00    0.0000000000000000E+00   -0.5000000000000000E+00    0.3362247395110399E-03    0.0000000000000000E+00    0.0000000000000000E+00    0.0000000000000000E+00    0.0000000000000000E+00    0.0000000000000000E+00
 -0.2529   0.6587    0.2587740418160515E-01    0.3708508418609212E-07   -0.3694904499017759E-07   -0.4951489795301859E+00   -0.6501118744132053E-03   -0.1245289707525230E-10    0.3675774025435619E-09   -0.7626778982666726E-12   -0.7486971112524721E-12    0.1035753709362208E-10
 -0.2542   0.6558    0.2728840289977964E-01    0.6220458089699687E-05   -0.2012525734718224E-05   -0.4806195043902842E+00   -0.7494959130915069E-02   -0.3066972506817148E-08    0.3623975659491907E-09   -0.1383583352054796E-11   -0.1092860177354105E-11    0.4219940369365460E-10
 -0.2563   0.6509    0.2954665632379831E-01    0.3971730054132342E-04   -0.4637516674314483E-05   -0.4564995894809910E+00   -0.3724134743633232E-01   -0.2132390808790282E-07    0.3576986155190420E-09   -0.1306305107487415E-11   -0.1093156815068497E-11    0.9509458324952202E-10
 -0.2594   0.6441    0.3258734326845784E-01    0.1164459142746541E-03   -0.6286203991581323E-05   -0.4229969672961711E+00   -0.1055835889682978E+00   -0.6295007828994954E-07    0.3548040593964741E-09   -0.9715804549781382E-12   -0.1090558199301483E-11    0.1695631760001426E-09
 -0.2632   0.6355    0.3631063008752670E-01    0.2324940089951427E-03   -0.6697825098385386E-05   -0.3805406593009243E+00   -0.2102112971253689E+00   -0.1257963669945090E-06    0.3531458198785531E-09   -0.6347977699050489E-12   -0.1120662590503585E-11    0.2672118117053035E-09
 -0.2679   0.6249    0.4053186753484578E-01    0.3684474643717941E-03   -0.5892290551481590E-05   -0.3299272142484526E+00   -0.3341361015687838E+00   -0.1991263178241160E-06    0.3524097437479501E-09   -0.5541608838477430E-12   -0.1074685479496296E-11    0.3899976036558783E-09
 -0.2734   0.6126    0.4496773907155056E-01    0.4976797818371808E-03   -0.4344940430513191E-05   -0.2724803130068501E+00   -0.4531910204100215E+00   -0.2686277372904268E-06    0.3514552902178503E-09   -0.9183764859699295E-12   -0.1066913918323920E-11    0.5426394333873930E-09
 -0.2797   0.5985    0.4924557323537523E-01    0.5957672317608333E-03   -0.2497861805722682E-05   -0.2101581965768181E+00   -0.5449841609132611E+00   -0.3210901673466206E-06    0.3489421616237331E-09   -0.1808393712554590E-11   -0.1013382086578751E-11    0.7303592591823005E-09
 -0.2867   0.5827    0.5294015048846362E-01    0.6501498974584489E-03   -0.9460455430883940E-06   -0.1455314046182805E+00   -0.5977885082777016E+00   -0.3498276283735375E-06    0.3431055485298568E-09   -0.3206664100918744E-11   -0.1034472854599677E-11    0.9595725602995486E-09
 -0.2945   0.5653    0.5563434527400286E-01    0.6678328533847542E-03   -0.1520312587474606E-06   -0.8158566091301206E-01   -0.6177616083967532E+00   -0.3586336295682564E-06    0.3319140560813748E-09   -0.5055442175994074E-11   -0.9746921152131716E-12    0.1232708740639410E-08
 -0.3029   0.5464    0.5699619662189850E-01    0.6768677087343607E-03   -0.4135622116269536E-06   -0.2137337494870817E-01   -0.6303457199922806E+00   -0.3626863399884115E-06    0.3128721629648210E-09   -0.7244914737580821E-11   -0.9696627181754458E-12    0.1544509728446108E-08
 -0.3120   0.5259    0.5684518608462504E-01    0.7186648176150815E-03   -0.1645962170174822E-05    0.3240199441766643E-01   -0.6733747593279629E+00   -0.3842984312389245E-06    0.2834665380029022E-09   -0.9621543145543754E-11   -0.9634949088566103E-12    0.1875102143000795E-08
 -0.3217   0.5041    0.5517833220949765E-01    0.8340347526217190E-03   -0.3526596192040035E-05    0.7777099179910477E-01   -0.7843277275105297E+00   -0.4454453557433348E-06    0.2415611035852527E-09   -0.1195401069797875E-10   -0.9563079494956384E-12    0.2188106251743704E-08
 -0.3320   0.4810    0.5214324418238737E-01    0.1051460594140041E-02   -0.5636466998229668E-05    0.1137768854011978E+00   -0.9895642692230605E+00   -0.5614165647372173E-06    0.1862268672603307E-09   -0.1398962889975763E-10   -0.9059905603514551E-12    0.2434420623420586E-08
 -0.3428   0.4567    0.4798049530406786E-01    0.1384582095370847E-02   -0.7723226628519775E-05    0.1405876603621582E+00   -0.1301851474303845E+01   -0.7395108031099790E-06    0.1179509129256573E-09   -0.1546682920627873E-10   -0.8586811817146156E-12    0.2564511276947901E-08
 -0.3541   0.4313    0.4297077313206995E-01    0.1837412584034302E-02   -0.9687937787536210E-05    0.1593873011300842E+00   -0.1725004645459331E+01   -0.9818653987635794E-06    0.3885294169725384E-10   -0.1611519251376592E-10   -0.8214748326018650E-12    0.2544409124366487E-08
 -0.3658   0.4050    0.3740762697313761E-01    0.2410007987904411E-02   -0.1153447089768472E-04    0.1720378307626099E+00   -0.2259011621252657E+01   -0.1288519469145379E-05   -0.4793655750123804E-10   -0.1562342616390211E-10   -0.7525091660909311E-12    0.2369127061196963E-08
 -0.3780   0.3777    0.3159145995697731E-01    0.3099662931917692E-02   -0.1322653956675073E-04    0.1806040186099754E+00   -0.2901149360257588E+01   -0.1658067153915543E-05   -0.1385231755690608E-09   -0.1362800497450856E-10   -0.7222278330942800E-12    0.2065063177750237E-08
 -0.3904   0.3498    0.2583278277367842E-01    0.3898494252382949E-02   -0.1469071328664299E-04    0.1869159560549753E+00   -0.3643803866815771E+01   -0.2086329616773348E-05   -0.2288762894486762E-09   -0.9810006973420826E-11   -0.6452199885487175E-12    0.1678751404381174E-08
 -0.4032   0.3212    0.2045472587475691E-01    0.4790632689729665E-02   -0.1580502398892218E-04    0.1923225839325803E+00   -0.4471932869872529E+01   -0.2564862496333101E-05   -0.3147404212255900E-09   -0.3947824706029834E-11   -0.5636324740265763E-12    0.1260109892407997E-08
 -0.4161   0.2920    0.1578908855979220E-01    0.5751146698901041E-02   -0.1646253379010054E-04    0.1976699140659584E+00   -0.5362129594882685E+01   -0.3080333516453558E-05   -0.3915240041896251E-09    0.3925797187331881E-11   -0.4870548409030562E-12    0.8503640491416831E-09
 -0.4292   0.2626    0.1216226356691305E-01    0.6747019354525731E-02   -0.1656993252088225E-04    0.2034223379635691E+00   -0.6283570846777840E+01   -0.3615077519809696E-05   -0.4543536831491668E-09    0.1350330958160839E-10   -0.4107408857478845E-12    0.4750055513855211E-09
 -0.4425   0.2328    0.9872417965417313E-02    0.7739468857276349E-02   -0.1607860075426399E-04    0.2098150851919003E+00   -0.7200205214439227E+01   -0.4148289925264250E-05   -0.4981816036087050E-09    0.2421224332138650E-10   -0.3285011151987760E-12    0.1471967131516649E-09
 -0.4558   0.2029    0.9162184983145269E-02    0.8686481688191191E-02   -0.1495340843405242E-04    0.2169691707648977E+00   -0.8073102168920483E+01   -0.4657436091362405E-05   -0.5183448774370714E-09    0.3534433856700048E-10   -0.2650102359780249E-12   -0.1291592761562543E-09
 -0.4691   0.1731    0.1019186120441658E-01    0.9544670971743026E-02   -0.1317520436442684E-04    0.2249552923823873E+00   -0.8862186396979229E+01   -0.5119190421839216E-05   -0.5112684164920722E-09    0.4610556381123843E-10   -0.2026157019940911E-12   -0.3547158105438042E-09
 -0.4823   0.1433    0.1301513399918357E-01    0.1027019701498275E-01   -0.1070825550200270E-04    0.2338213317619086E+00   -0.9527080120515706E+01   -0.5509994290119639E-05   -0.4750116133767079E-09    0.5578365547265207E-10   -0.1534050664275810E-12   -0.5326650127923660E-09
 -0.4955   0.1138    0.1755777758820776E-01    0.1081929114960708E-01   -0.7517191870521941E-05    0.2436009019113532E+00   -0.1002761742918870E+02   -0.5806263686673128E-05   -0.4096758401267442E-09    0.6373063188291894E-10   -0.1164346397075633E-12   -0.6661735130544799E-09
 -0.5084   0.0847    0.2359970416283248E-01    0.1114943049548952E-01   -0.3571112774804561E-05    0.2543138129551488E+00   -0.1032493048293118E+02   -0.5985094996400555E-05   -0.3175726097023879E-09    0.6947886710406692E-10   -0.1164554563892750E-12   -0.7593113030696097E-09
 -0.5212   0.0561    0.3076447109346996E-01    0.1122231021862713E-01    0.1102804278706937E-05    0.2659635098730244E+00   -0.1038422421801386E+02   -0.6025774263382334E-05   -0.2031486086122303E-09    0.7268730062293116E-10   -0.1251681050473685E-12   -0.8159091804960106E-09
 -0.5336   0.0281    0.3852432267213145E-01    0.1100922265598553E-01    0.6383567662774510E-05    0.2785336251601597E+00   -0.1017969051853016E+02   -0.5912767844239891E-05   -0.7273159158271980E-10    0.7316391936740274E-10   -0.1379070468932042E-12   -0.8398445064394799E-09
 -0.5457   0.0009    0.4623163320066332E-01    0.1049841008023103E-01    0.1200282578643324E-04    0.2919847677876232E+00   -0.9701236739741040E+01   -0.5639585401041345E-05    0.6586298173516525E-10    0.7088862830073595E-10   -0.1561528684135283E-12   -0.8356673703718842E-09
 -0.5575  -0.0255    0.5318394412705149E-01    0.9702520513899672E-02    0.1754789806870857E-04    0.3062523440007140E+00   -0.8961191327577586E+01   -0.5212929843299599E-05    0.2041251820350531E-09    0.6609524039191683E-10   -0.1881272915227328E-12   -0.8077636701880886E-09
 -0.5688  -0.0508    0.5871937762599369E-01    0.8663185954568499E-02    0.2249627628675534E-04    0.3212458948476137E+00   -0.7998398939166671E+01   -0.4655060665075781E-05    0.3338994983281829E-09    0.5921046986046008E-10   -0.2072231275462855E-12   -0.7604833048013848E-09
 -0.5796  -0.0751    0.6232332076647975E-01    0.7449693529276874E-02    0.2632541177922817E-04    0.3368498579756445E+00   -0.6876835490796175E+01   -0.4003245417152907E-05    0.4484933258108725E-09    0.5085759591239025E-10   -0.2189082248804652E-12   -0.6990072687340643E-09
 -0.5899  -0.0982    0.6371574801899674E-01    0.6150453387709743E-02    0.2863107942529233E-04    0.3529248547454286E+00   -0.5677776476690817E+01   -0.3305014398424913E-05    0.5436557523608165E-09    0.4186889723811760E-10   -0.1964262086318058E-12   -0.6276740637661815E-09
 -0.5996  -0.1201    0.6288942879342146E-01    0.4858885522053269E-02    0.2923873946988127E-04    0.3693079237119307E+00   -0.4486843915719239E+01   -0.2610733575963953E-05    0.6179695921648687E-09    0.3299688300373305E-10   -0.2079447725122918E-12   -0.5515634581010342E-09
 -0.6087  -0.1405    0.6008674815602247E-01    0.3658052617491455E-02    0.2823022049764020E-04    0.3858101822974596E+00   -0.3380087588399050E+01   -0.1965101668303003E-05    0.6725821427577827E-09    0.2489300432451103E-10   -0.2207956040223280E-12   -0.4738582356361709E-09
 -0.6171  -0.1594    0.5572683898030478E-01    0.2608951215836045E-02    0.2589946055644489E-04    0.4022117545429003E+00   -0.2413288945801312E+01   -0.1401059700799656E-05    0.7103539770292322E-09    0.1796714166335533E-10   -0.2047945146799179E-12   -0.3978296893303312E-09
 -0.6249  -0.1769    0.5031248071476711E-01    0.1745632956584051E-02    0.2263943901578322E-04    0.4182563822507860E+00   -0.1617635720077981E+01   -0.9368779666928805E-06    0.7348966782338984E-09    0.1237536462195266E-10   -0.1942196403703633E-12   -0.3260544854943870E-09
 -0.6319  -0.1926    0.4434721709667434E-01    0.1077144438730631E-02    0.1882908923147783E-04    0.4336507260938279E+00   -0.1001385542631024E+01   -0.5775241411092034E-06    0.7497278492474280E-09    0.8077954971597023E-11   -0.2015332345450815E-12   -0.2604022032726139E-09
 -0.6382  -0.2067    0.3828156648819901E-01    0.5938022644138705E-03    0.1475149596709252E-04    0.4480738443041025E+00   -0.5556794202790752E+00   -0.3176741333480092E-06    0.7578367863803059E-09    0.4930055929469601E-11   -0.2033234691722896E-12   -0.2014947340922557E-09
 -0.6437  -0.2191    0.3249039820032062E-01    0.2741580942348698E-03    0.1058703422831381E-04    0.4611990912392511E+00   -0.2606711119637320E+00   -0.1459412853912835E-06    0.7616195799031722E-09    0.2757329087277327E-11   -0.2489328188026718E-12   -0.1490667780185140E-09
 -0.6484  -0.2296    0.2727174637578271E-01    0.8989808729843561E-04    0.6488468861343846E-05    0.4727244286331806E+00   -0.9014123304043027E-01   -0.4696516741268663E-07    0.7628582592011934E-09    0.1389399012508008E-11   -0.2455327607897573E-12   -0.1043013843696206E-09
 -0.6522  -0.2383    0.2285134895621856E-01    0.7503234075381156E-05    0.2747963442445200E-05    0.4824013748869282E+00   -0.1275507644332488E-01   -0.3010662032523367E-08    0.7630153956578178E-09    0.6685589581945095E-12   -0.2587010466958972E-12   -0.6701707071232743E-10
 -0.6553  -0.2451    0.1938029752746049E-01   -0.1113345823781801E-04   -0.7578002781134734E-07    0.4900517394991922E+00    0.6740665723220578E-02    0.6673229514011908E-08    0.7631105207917162E-09    0.4046468021767780E-12   -0.2807508999586039E-12   -0.3800021408650878E-10
 -0.6574  -0.2499    0.1692393545110515E-01   -0.4921579871044643E-05   -0.1182093093928831E-05    0.4955665305970417E+00    0.3936112138408488E-02    0.2694706225016516E-08    0.7639366617594179E-09    0.3536979736873391E-12   -0.3034434682691600E-12   -0.1678330391330363E-10
 -0.6587  -0.2529    0.1546634871013962E-01   -0.2007137659036497E-06   -0.2007365090449905E-06    0.4988902048728935E+00    0.6996980108320467E-03    0.1710960984243743E-09    0.7652411940879331E-09    0.1832552664303433E-12   -0.2068852901493390E-12   -0.4547418377184170E-11
 -0.6592  -0.2538    0.1498099965157721E-01    0.0000000000000000E+00    0.0000000000000000E+00    0.5000000000000000E+00   -0.5865778302907061E-04    0.0000000000000000E+00    0.0000000000000000E+00    0.0000000000000000E+00    0.0000000000000000E+00    0.0000000000000000E+00
 -0.2495   0.6584    0.2606442142303634E-01    0.0000000000000000E+00    0.0000000000000000E+00   -0.5000000000000000E+00   -0.4546976085259963E-02    0.0000000000000000E+00    0.0000000000000000E+00    0.0000000000000000E+00    0.0000000000000000E+00    0.0000000000000000E+00
 -0.2499   0.6574    0.2654167879237446E-01    0.2011144967149091E-05   -0.6218034150773883E-05   -0.4951468932008296E+00   -0.7493654023713148E-02   -0.3065414008421326E-08    0.3627205246228837E-09   -0.1077612662731681E-11   -0.1475582676879750E-11    0.1069924400812217E-10
 -0.2512   0.6545    0.2794317697784456E-01    0.3153788654337721E-04   -0.3154208858167698E-04   -0.4806110794620018E+00   -0.1609948064146001E-01   -0.6264632648357684E-07    0.3606821612212041E-09   -0.3168381572729584E-11   -0.3594971542675296E-11    0.4229407405895169E-10
 -0.2534   0.6496    0.3019640956054056E-01    0.1527797629776313E-03   -0.6747400037214821E-04   -0.4564800921914450E+00   -0.3826630265388492E-01   -0.3334093643082064E-06    0.3574480156309789E-09   -0.4040413836836620E-11   -0.4393659047696730E-11    0.9509745942104519E-10
 -0.2564   0.6428    0.3321716988544107E-01    0.4244636279292654E-03   -0.9347180015685995E-04   -0.4229607691671148E+00   -0.8905588747565879E-01   -0.9460901131751252E-06    0.3546717225466622E-09   -0.3583388794026199E-11   -0.4578802614840782E-11    0.1695150790570477E-09
 -0.2603   0.6342    0.3689388908880594E-01    0.8453217313949388E-03   -0.1009465702716346E-03   -0.3804815395912307E+00   -0.1728739878484568E+00   -0.1885930232034763E-05    0.3528727657298170E-09   -0.2859198988680589E-11   -0.4436062628343507E-11    0.2668769892577583E-09
 -0.2650   0.6236    0.4104247631906840E-01    0.1351860241816803E-02   -0.9073225230330268E-04   -0.3298395873704467E+00   -0.2792199015942549E+00   -0.3003604360013131E-05    0.3517425725685364E-09   -0.2937088072751948E-11   -0.4195109537530328E-11    0.3900324577199576E-09
 -0.2705   0.6113    0.4538531938892245E-01    0.1847795337263047E-02   -0.6829960452994488E-04   -0.2723610245807694E+00   -0.3885172561388326E+00   -0.4083599735691725E-05    0.3503688589256981E-09   -0.4631010852573780E-11   -0.3910496926273765E-11    0.5423837906581852E-09
 -0.2767   0.5972    0.4955906763484043E-01    0.2241080079757073E-02   -0.4110499505270570E-04   -0.2100081850613944E+00   -0.4809033565925087E+00   -0.4923623010990195E-05    0.3474086053556480E-09   -0.8281555996525469E-11   -0.3696863995483746E-11    0.7300518939379330E-09