 title="result"
 variables="x","y","P","u","v","t","omega","psi","RES1","RES2","RES3","RES4"
zone,j= 49,i= 49,f=point
 -0.4865   0.5131    0.2316407284821785E-01    0.0000000000000000E+00    0.0000000000000000E+00   -0.5000000000000000E+00    0.0000000000000000E+00    0.0000000000000000E+00    0.0000000000000000E+00    0.0000000000000000E+00    0.0000000000000000E+00    0.0000000000000000E+00
 -0.4866   0.5120    0.2369451603456676E-01    0.0000000000000000E+00    0.0000000000000000E+00   -0.4962926871810434E+00   -0.3461942019314429E-03    0.0000000000000000E+00    0.0000000000000000E+00    0.0000000000000000E+00    0.0000000000000000E+00    0.0000000000000000E+00
 -0.4866   0.5088    0.2527928388565360E-01    0.0000000000000000E+00    0.0000000000000000E+00   -0.4851880390392742E+00   -0.4571150551305410E-02    0.0000000000000000E+00    0.0000000000000000E+00    0.0000000000000000E+00    0.0000000000000000E+00    0.0000000000000000E+00
 -0.4868   0.5035    0.2788306468923098E-01    0.0000000000000000E+00    0.0000000000000000E+00   -0.4667460990792389E+00   -0.2509683636255272E-02    0.0000000000000000E+00    0.0000000000000000E+00    0.0000000000000000E+00    0.0000000000000000E+00    0.0000000000000000E+00
 -0.4870   0.4961    0.3137242583247250E-01    0.0000000000000000E+00    0.0000000000000000E+00   -0.4410915911287136E+00    0.2863497609008602E-01    0.0000000000000000E+00    0.0000000000000000E+00    0.0000000000000000E+00    0.0000000000000000E+00    0.0000000000000000E+00
 -0.4872   0.4866    0.3549139725317009E-01    0.0000000000000000E+00    0.0000000000000000E+00   -0.4084403440380398E+00    0.1039806952923184E+00    0.0000000000000000E+00    0.0000000000000000E+00    0.0000000000000000E+00    0.0000000000000000E+00    0.0000000000000000E+00
 -0.4875   0.4751    0.3990692736226847E-01    0.0000000000000000E+00    0.0000000000000000E+00   -0.3691196966152827E+00    0.2221154734455933E+00    0.0000000000000000E+00    0.0000000000000000E+00    0.0000000000000000E+00    0.0000000000000000E+00    0.0000000000000000E+00
 -0.4879   0.4616    0.4425146250092477E-01    0.0000000000000000E+00    0.0000000000000000E+00   -0.3235857963939300E+00    0.3649034247811936E+00    0.0000000000000000E+00    0.0000000000000000E+00    0.0000000000000000E+00    0.0000000000000000E+00    0.0000000000000000E+00
 -0.4883   0.4462    0.4816538339432345E-01    0.0000000000000000E+00    0.0000000000000000E+00   -0.2724611086544590E+00    0.5014616130434159E+00    0.0000000000000000E+00    0.0000000000000000E+00    0.0000000000000000E+00    0.0000000000000000E+00    0.0000000000000000E+00
 -0.4888   0.4289    0.5132999503840043E-01    0.0000000000000000E+00    0.0000000000000000E+00   -0.2166243685831343E+00    0.5952634015707141E+00    0.0000000000000000E+00    0.0000000000000000E+00    0.0000000000000000E+00    0.0000000000000000E+00    0.0000000000000000E+00
 -0.4893   0.4098    0.5349016426718167E-01    0.0000000000000000E+00    0.0000000000000000E+00   -0.1573671599645378E+00    0.6127814831064253E+00    0.0000000000000000E+00    0.0000000000000000E+00    0.0000000000000000E+00    0.0000000000000000E+00    0.0000000000000000E+00
 -0.4898   0.3891    0.5446156712768858E-01    0.0000000000000000E+00    0.0000000000000000E+00   -0.9657949836947008E-01    0.5313913121646150E+00    0.0000000000000000E+00    0.0000000000000000E+00    0.0000000000000000E+00    0.0000000000000000E+00    0.0000000000000000E+00
 -0.4904   0.3667    0.5412941872553150E-01    0.0000000000000000E+00    0.0000000000000000E+00   -0.3684917801580964E-01    0.3430178479001495E+00    0.0000000000000000E+00    0.0000000000000000E+00    0.0000000000000000E+00    0.0000000000000000E+00    0.0000000000000000E+00
 -0.4911   0.3428    0.5244933738321610E-01    0.0000000000000000E+00    0.0000000000000000E+00    0.1870024846255429E-01    0.5160916517589074E-01    0.0000000000000000E+00    0.0000000000000000E+00    0.0000000000000000E+00    0.0000000000000000E+00    0.0000000000000000E+00
 -0.4917   0.3176    0.4945937875397075E-01    0.0000000000000000E+00    0.0000000000000000E+00    0.6695943941417797E-01   -0.3340827191832258E+00    0.0000000000000000E+00    0.0000000000000000E+00    0.0000000000000000E+00    0.0000000000000000E+00    0.0000000000000000E+00
 -0.4924   0.2910    0.4529493867746204E-01    0.0000000000000000E+00    0.0000000000000000E+00    0.1056731894420270E+00   -0.8076967971687791E+00    0.0000000000000000E+00    0.0000000000000000E+00    0.0000000000000000E+00    0.0000000000000000E+00    0.0000000000000000E+00
 -0.4932   0.2632    0.4018946821757028E-01    0.0000000000000000E+00    0.0000000000000000E+00    0.1341771448256795E+00   -0.1368380682533765E+01    0.0000000000000000E+00    0.0000000000000000E+00    0.0000000000000000E+00    0.0000000000000000E+00    0.0000000000000000E+00
 -0.4939   0.2344    0.3445266600056016E-01    0.0000000000000000E+00    0.0000000000000000E+00    0.1535649603476611E+00   -0.2019062868752856E+01    0.0000000000000000E+00    0.0000000000000000E+00    0.0000000000000000E+00    0.0000000000000000E+00    0.0000000000000000E+00
 -0.4947   0.2046    0.2843904643410912E-01    0.0000000000000000E+00    0.0000000000000000E+00    0.1661457069872380E+00   -0.2761727249814815E+01    0.0000000000000000E+00    0.0000000000000000E+00    0.0000000000000000E+00    0.0000000000000000E+00    0.0000000000000000E+00
 -0.4956   0.1740    0.2252372765966933E-01    0.0000000000000000E+00    0.0000000000000000E+00    0.1745345167529544E+00   -0.3591797403978288E+01    0.0000000000000000E+00    0.0000000000000000E+00    0.0000000000000000E+00    0.0000000000000000E+00    0.0000000000000000E+00
 -0.4964   0.1427    0.1708891125665223E-01    0.0000000000000000E+00    0.0000000000000000E+00    0.1809066670044487E+00   -0.4493644414974449E+01    0.0000000000000000E+00    0.0000000000000000E+00    0.0000000000000000E+00    0.0000000000000000E+00    0.0000000000000000E+00
 -0.4972   0.1108    0.1251041561082600E-01    0.0000000000000000E+00    0.0000000000000000E+00    0.1867053446968421E+00   -0.5438874162511971E+01    0.0000000000000000E+00    0.0000000000000000E+00    0.0000000000000000E+00    0.0000000000000000E+00    0.0000000000000000E+00
 -0.4981   0.0785    0.9134753780020356E-02    0.0000000000000000E+00    0.0000000000000000E+00    0.1927304515175975E+00   -0.6387894769897943E+01    0.0000000000000000E+00    0.0000000000000000E+00    0.0000000000000000E+00    0.0000000000000000E+00    0.0000000000000000E+00
 -0.4990   0.0460    0.7245673606214751E-02    0.0000000000000000E+00    0.0000000000000000E+00    0.1993720655215894E+00   -0.7293695546380278E+01    0.0000000000000000E+00    0.0000000000000000E+00    0.0000000000000000E+00    0.0000000000000000E+00    0.0000000000000000E+00
 -0.4998   0.0133    0.7026844778556598E-02    0.0000000000000000E+00    0.0000000000000000E+00    0.2068125032429702E+00   -0.8106229058785873E+01    0.0000000000000000E+00    0.0000000000000000E+00    0.0000000000000000E+00    0.0000000000000000E+00    0.0000000000000000E+00
 -0.5007  -0.0194    0.8528372278503085E-02    0.0000000000000000E+00    0.0000000000000000E+00    0.2151440836745925E+00   -0.8776237045879098E+01    0.0000000000000000E+00    0.0000000000000000E+00    0.0000000000000000E+00    0.0000000000000000E+00    0.0000000000000000E+00
 -0.5016  -0.0519    0.1164299023256737E-01    0.0000000000000000E+00    0.0000000000000000E+00    0.2244210169800930E+00   -0.9258360185334631E+01    0.0000000000000000E+00    0.0000000000000000E+00    0.0000000000000000E+00    0.0000000000000000E+00    0.0000000000000000E+00
 -0.5024  -0.0842    0.1609545285583387E-01    0.0000000000000000E+00    0.0000000000000000E+00    0.2346766027025699E+00   -0.9514077268089771E+01    0.0000000000000000E+00    0.0000000000000000E+00    0.0000000000000000E+00    0.0000000000000000E+00    0.0000000000000000E+00
 -0.5033  -0.1161    0.2144905927141225E-01    0.0000000000000000E+00    0.0000000000000000E+00    0.2459262007995260E+00   -0.9515234864883332E+01    0.0000000000000000E+00    0.0000000000000000E+00    0.0000000000000000E+00    0.0000000000000000E+00    0.0000000000000000E+00
 -0.5041  -0.1474    0.2713399004055826E-01    0.0000000000000000E+00    0.0000000000000000E+00    0.2581655160502612E+00   -0.9248418722401528E+01    0.0000000000000000E+00    0.0000000000000000E+00    0.0000000000000000E+00    0.0000000000000000E+00    0.0000000000000000E+00
 -0.5049  -0.1780    0.3250142976759102E-01    0.0000000000000000E+00    0.0000000000000000E+00    0.2713680174145946E+00   -0.8719548390700906E+01    0.0000000000000000E+00    0.0000000000000000E+00    0.0000000000000000E+00    0.0000000000000000E+00    0.0000000000000000E+00
 -0.5057  -0.2078    0.3690187937091707E-01    0.0000000000000000E+00    0.0000000000000000E+00    0.2854830531372070E+00   -0.7957107060684242E+01    0.0000000000000000E+00    0.0000000000000000E+00    0.0000000000000000E+00    0.0000000000000000E+00    0.0000000000000000E+00
 -0.5065  -0.2366    0.3977680249340465E-01    0.0000000000000000E+00    0.0000000000000000E+00    0.3004352638459363E+00   -0.7012057811417796E+01    0.0000000000000000E+00    0.0000000000000000E+00    0.0000000000000000E+00    0.0000000000000000E+00    0.0000000000000000E+00
 -0.5072  -0.2644    0.4074309119450496E-01    0.0000000000000000E+00    0.0000000000000000E+00    0.3161251594203950E+00   -0.5953053699526534E+01    0.0000000000000000E+00    0.0000000000000000E+00    0.0000000000000000E+00    0.0000000000000000E+00    0.0000000000000000E+00
 -0.5079  -0.2910    0.3964682234918887E-01    0.0000000000000000E+00    0.0000000000000000E+00    0.3324299617193914E+00   -0.4857184463952227E+01    0.0000000000000000E+00    0.0000000000000000E+00    0.0000000000000000E+00    0.0000000000000000E+00    0.0000000000000000E+00
 -0.5086  -0.3163    0.3657015257005476E-01    0.0000000000000000E+00    0.0000000000000000E+00    0.3492032600423132E+00   -0.3798397206089182E+01    0.0000000000000000E+00    0.0000000000000000E+00    0.0000000000000000E+00    0.0000000000000000E+00    0.0000000000000000E+00
 -0.5092  -0.3401    0.3179136727656852E-01    0.0000000000000000E+00    0.0000000000000000E+00    0.3662721654341549E+00   -0.2836937644069971E+01    0.0000000000000000E+00    0.0000000000000000E+00    0.0000000000000000E+00    0.0000000000000000E+00    0.0000000000000000E+00
 -0.5098  -0.3625    0.2571445104666425E-01    0.0000000000000000E+00    0.0000000000000000E+00    0.3834318840221684E+00   -0.2012770465847820E+01    0.0000000000000000E+00    0.0000000000000000E+00    0.0000000000000000E+00    0.0000000000000000E+00    0.0000000000000000E+00
 -0.5104  -0.3832    0.1879245292089574E-01    0.0000000000000000E+00    0.0000000000000000E+00    0.4004398280204710E+00   -0.1344275432895806E+01    0.0000000000000000E+00    0.0000000000000000E+00    0.0000000000000000E+00    0.0000000000000000E+00    0.0000000000000000E+00
 -0.5109  -0.4023    0.1146546813727004E-01    0.0000000000000000E+00    0.0000000000000000E+00    0.4170135429575442E+00   -0.8314459052364115E+00    0.0000000000000000E+00    0.0000000000000000E+00    0.0000000000000000E+00    0.0000000000000000E+00    0.0000000000000000E+00
 -0.5113  -0.4196    0.4123147553052647E-02    0.0000000000000000E+00    0.0000000000000000E+00    0.4328372397204953E+00   -0.4615022808583180E+00    0.0000000000000000E+00    0.0000000000000000E+00    0.0000000000000000E+00    0.0000000000000000E+00    0.0000000000000000E+00
 -0.5117  -0.4350   -0.2909247717148791E-02    0.0000000000000000E+00    0.0000000000000000E+00    0.4475793936497106E+00   -0.2145878091248697E+00    0.0000000000000000E+00    0.0000000000000000E+00    0.0000000000000000E+00    0.0000000000000000E+00    0.0000000000000000E+00
 -0.5121  -0.4485   -0.9369549125292118E-02    0.0000000000000000E+00    0.0000000000000000E+00    0.4609191743334255E+00   -0.6785225003291867E-01    0.0000000000000000E+00    0.0000000000000000E+00    0.0000000000000000E+00    0.0000000000000000E+00    0.0000000000000000E+00
 -0.5124  -0.4600   -0.1505173364689657E-01    0.0000000000000000E+00    0.0000000000000000E+00    0.4725747162524195E+00    0.2650544217074193E-02    0.0000000000000000E+00    0.0000000000000000E+00    0.0000000000000000E+00    0.0000000000000000E+00    0.0000000000000000E+00
 -0.5127  -0.4695   -0.1980219490657280E-01    0.0000000000000000E+00    0.0000000000000000E+00    0.4823243113480510E+00    0.2174329809245678E-01    0.0000000000000000E+00    0.0000000000000000E+00    0.0000000000000000E+00    0.0000000000000000E+00    0.0000000000000000E+00
 -0.5129  -0.4769   -0.2352154944302360E-01    0.0000000000000000E+00    0.0000000000000000E+00    0.4900139972190777E+00    0.1451020805671299E-01    0.0000000000000000E+00    0.0000000000000000E+00    0.0000000000000000E+00    0.0000000000000000E+00    0.0000000000000000E+00
 -0.5130  -0.4823   -0.2616943714260611E-01    0.0000000000000000E+00    0.0000000000000000E+00    0.4955507319320075E+00    0.3387237852965309E-02    0.0000000000000000E+00    0.0000000000000000E+00    0.0000000000000000E+00    0.0000000000000000E+00    0.0000000000000000E+00
 -0.5131  -0.4855   -0.2775703939575535E-01    0.0000000000000000E+00    0.0000000000000000E+00    0.4988863103815345E+00   -0.1524805333796613E-03    0.0000000000000000E+00    0.0000000000000000E+00    0.0000000000000000E+00    0.0000000000000000E+00    0.0000000000000000E+00
 -0.5131  -0.4865   -0.2828976985843527E-01    0.0000000000000000E+00    0.0000000000000000E+00    0.5000000000000000E+00    0.0000000000000000E+00    0.0000000000000000E+00    0.0000000000000000E+00    0.0000000000000000E+00    0.0000000000000000E+00    0.0000000000000000E+00
 -0.4855   0.5131    0.2318095485663870E-01    0.0000000000000000E+00    0.0000000000000000E+00   -0.5000000000000000E+00   -0.3462090794413451E-03    0.0000000000000000E+00    0.0000000000000000E+00    0.0000000000000000E+00    0.0000000000000000E+00    0.0000000000000000E+00
 -0.4855   0.5120    0.2371134596935758E-01    0.3442994109438975E-06   -0.3443341409244453E-06   -0.4962926160651511E+00   -0.5509985126179403E-03   -0.2441354019871878E-09    0.9138845681730054E-09   -0.1002793226061172E-12   -0.1233819903884159E-12   -0.9653492415162557E-11
 -0.4856   0.5088    0.2529434422256753E-01    0.3348022012880926E-05   -0.5000095364538678E-06   -0.4851877572087397E+00   -0.1643530421450772E-02   -0.2015283910203672E-08    0.9132503844952108E-09   -0.1496528595490432E-12   -0.1638517338302392E-12   -0.3927438539316763E-10
 -0.4857   0.5035    0.2789030824784352E-01   -0.4929524727354215E-06    0.1215773499884179E-05   -0.4667454871954783E+00    0.3571016514233253E-02   -0.3171626323205830E-09    0.9136025503828082E-09   -0.8027606357430273E-13   -0.1610343802749270E-12   -0.8735041075874639E-10
 -0.4859   0.4961    0.3136795247839255E-01   -0.3352854565926257E-04    0.3447347679354300E-05   -0.4410905808191001E+00    0.3407154955123964E-01    0.1747393763086786E-07    0.9159757353646714E-09   -0.2527197201507292E-12   -0.1431042784272307E-12   -0.1545956964874029E-09
 -0.4862   0.4866    0.3547726712916983E-01   -0.1118769768648457E-03    0.5263316719698420E-05   -0.4084389214702148E+00    0.1050761565704331E+00    0.5977441997066956E-07    0.9203766377502420E-09   -0.1064093041111547E-11   -0.1124760007353842E-12   -0.2384588342757565E-09
 -0.4865   0.4750    0.3988774257589465E-01   -0.2346762392931003E-03    0.6043404380590042E-05   -0.3691178607756201E+00    0.2163039878211705E+00    0.1261854549673618E-06    0.9261290952883305E-09   -0.2795793110910161E-11   -0.5166700400849322E-13   -0.3363604152151201E-09
 -0.4868   0.4615    0.4423290955436522E-01   -0.3832935264737309E-03    0.5661170761902034E-05   -0.3235834906880319E+00    0.3511483390439214E+00    0.2064616405947558E-06    0.9320076620189521E-09   -0.5512500178550539E-11   -0.6062511603843745E-13   -0.4411472472043432E-09
 -0.4872   0.4461    0.4815268269820104E-01   -0.5254401067606101E-03    0.4164499917886730E-05   -0.2724581599285381E+00    0.4801256327517346E+00    0.2832876214391703E-06    0.9366731843277187E-09   -0.9019313074176694E-11   -0.2746067262471286E-13   -0.5386966879517008E-09
 -0.4877   0.4289    0.5132709648643445E-01   -0.6226370754008285E-03    0.1858649430526460E-05   -0.2166204687617665E+00    0.5679077905793802E+00    0.3358702567923348E-06    0.9389606978223164E-09   -0.1291519668988883E-10   -0.4355023286439774E-13   -0.6063740898287762E-09
 -0.4882   0.4098    0.5349900730123014E-01   -0.6393641898118291E-03   -0.8710999173867942E-06   -0.1573619205462999E+00    0.5816361159927567E+00    0.3452001647180777E-06    0.9379574361124965E-09   -0.1670115434837527E-10   -0.9178421911393286E-13   -0.6094157192770844E-09
 -0.4888   0.3891    0.5448207998920039E-01   -0.5514324608254336E-03   -0.3580588928154693E-05   -0.9657259788396545E-01    0.4987616877055570E+00    0.2982648510473234E-06    0.9325097534429450E-09   -0.1995315024316824E-10   -0.1174199626419181E-12   -0.5037150002662472E-09
 -0.4894   0.3667    0.5416000575709371E-01   -0.3499347869017797E-03   -0.5966937410443789E-05   -0.3684058557524689E-01    0.3106998648080515E+00    0.1903925033670035E-06    0.9204278988289571E-09   -0.2241640206790407E-10   -0.1890709810936642E-12   -0.2442724147955211E-09
 -0.4900   0.3428    0.5248794858856767E-01   -0.3870790700218624E-04   -0.7904293993334581E-05    0.1871006892529926E-01    0.2067989625120266E-01    0.2366319848065720E-07    0.8977121858377846E-09   -0.2399118403939582E-10   -0.2272279586712500E-12    0.1975879043714102E-09
 -0.4907   0.3175    0.4950441628837828E-01    0.3731760219796137E-03   -0.9482354272129656E-05    0.6696950967891493E-01   -0.3631137245374509E+00   -0.1969776611464006E-06    0.8588478539461875E-09   -0.2460757986266771E-10   -0.2525965547839348E-12    0.8139881546576078E-09
 -0.4914   0.2910    0.4534573874851312E-01    0.8789834041149683E-03   -0.1086614389337795E-04    0.1056822935872487E+00   -0.8344534676958490E+00   -0.4679439345408031E-06    0.7982155526831125E-09   -0.2409807076109161E-10   -0.3393882397340064E-12    0.1548280739727126E-08
 -0.4921   0.2632    0.4024610077185617E-01    0.1477648100889179E-02   -0.1221194026260228E-04    0.1341842990972084E+00   -0.1392206033277714E+01   -0.7886645109450779E-06    0.7121001878440669E-09   -0.2216168221158554E-10   -0.4116845753188159E-12    0.2305269891644812E-08
 -0.4929   0.2343    0.3451545594856464E-01    0.2171984703248744E-02   -0.1356871897399453E-04    0.1535697793722934E+00   -0.2038693750063360E+01   -0.1160726941580864E-05    0.6002765819135281E-09   -0.1843203367712931E-10   -0.4535816167106077E-12    0.2981680000124776E-08
 -0.4937   0.2045    0.2850796440054408E-01    0.2963696209942328E-02   -0.1488679486205620E-04    0.1661484293113508E+00   -0.2775118085519174E+01   -0.1585096650550674E-05    0.4661449316822885E-09   -0.1250709258382443E-10   -0.5391798119092073E-12    0.3501932580723954E-08
 -0.4945   0.1739    0.2259795468665909E-01    0.3847448866219483E-02   -0.1601407705824309E-04    0.1745357303206144E+00   -0.3596085931524230E+01   -0.2059014340391720E-05    0.3162248241039833E-09   -0.3995376945953311E-11   -0.6026706911299584E-12    0.3837094203137936E-08
 -0.4953   0.1426    0.1716659146275568E-01    0.4806172530430450E-02   -0.1675955955700678E-04    0.1809069781644579E+00   -0.4485338731612880E+01   -0.2573387431585245E-05    0.1594553378225783E-09    0.7386358885641542E-11   -0.6625949788841012E-12    0.3999931215024552E-08
 -0.4962   0.1108    0.1258874224864838E-01    0.5809334500262928E-02   -0.1693235933632904E-04    0.1867051887786629E+00   -0.5414226636744904E+01   -0.3111910687887854E-05    0.6584822964672554E-11    0.2166898604993861E-10   -0.6564887522486629E-12    0.4026186535424983E-08
 -0.4970   0.0785    0.9210216539496115E-02    0.6814676431303970E-02   -0.1639916889450765E-04    0.1927300695090413E+00   -0.6343396595257301E+01   -0.3651930411271658E-05   -0.1306494044894801E-09    0.3847236418330624E-10   -0.6801226248853709E-12    0.3956288862055207E-08
 -0.4979   0.0460    0.7314411215346301E-02    0.7772266582632885E-02   -0.1508522170123645E-04    0.1993715639451974E+00   -0.7226575138515774E+01   -0.4166659101222515E-05   -0.2403512909532335E-09    0.5698763683170682E-10   -0.6259576190714711E-12    0.3824707674703054E-08
 -0.4988   0.0133    0.7084905115074296E-02    0.8629155851690508E-02   -0.1297672955816991E-04    0.2068119194049296E+00   -0.8014890736446524E+01   -0.4627634613143794E-05   -0.3120061084493919E-09    0.7609773922112595E-10   -0.5414696468974967E-12    0.3656604777649286E-08
 -0.4996  -0.0194    0.8571925804402952E-02    0.9333424711736970E-02   -0.1009403100782641E-04    0.2151434267103823E+00   -0.8660604483276041E+01   -0.5006927239736325E-05   -0.3377062206266768E-09    0.9446338156138268E-10   -0.4231684447297823E-12    0.3469146589787919E-08
 -0.5005  -0.0520    0.1166846148362691E-01    0.9837457429507578E-02   -0.6491874423948987E-05    0.2244202871431811E+00   -0.9120119271407702E+01   -0.5278876896850842E-05   -0.3133697797780277E-09    0.1107750557949316E-09   -0.2851989477914429E-12    0.3273351701672811E-08
 -0.5013  -0.0842    0.1609972273125799E-01    0.1010102866482764E-01   -0.2258700663156723E-05    0.2346757988732014E+00   -0.9356807415406147E+01   -0.5421774432536465E-05   -0.2395672488511580E-09    0.1237718261215548E-09   -0.9292913660807756E-13    0.3076080079024435E-08
 -0.5022  -0.1161    0.2142973236319794E-01    0.1009499527904818E-01    0.2456145303839193E-05    0.2459253230594432E+00   -0.9344375923382101E+01   -0.5419841649088849E-05   -0.1216850890883858E-09    0.1324064191621233E-09    0.8974244958270816E-13    0.2881009012953295E-08
 -0.5030  -0.1474    0.2708981028832905E-01    0.9805851352001098E-02    0.7424908252062305E-05    0.2581645663061402E+00   -0.9071009294384726E+01   -0.5265696359666874E-05    0.3024585963629089E-10    0.1358786416716384E-09    0.3176833796025846E-12    0.2690526338181010E-08
 -0.5038  -0.1780    0.3243270324832115E-01    0.9240483752392213E-02    0.1232816461472069E-04    0.2713669990129196E+00   -0.8543652526835054E+01   -0.4962929573627828E-05    0.2023983584897859E-09    0.1337466248862995E-09    0.4940423070642908E-12    0.2504881255541158E-08
 -0.5046  -0.2078    0.3681082960414268E-01    0.8429469505911729E-02    0.1677898145788779E-04    0.2854819697428975E+00   -0.7790950360606881E+01   -0.4527888711448249E-05    0.3787981039948818E-09    0.1260908599753918E-09    0.6748629433062092E-12    0.2323558598998909E-08
 -0.5054  -0.2366    0.3966761106501564E-01    0.7426888401801458E-02    0.2037732384668030E-04    0.3004341178843093E+00   -0.6862968886444618E+01   -0.3989613256232372E-05    0.5436297037531013E-09    0.1135573857169447E-09    0.8647665916683422E-12    0.2145396171479574E-08
 -0.5061  -0.2644    0.4062157655051066E-01    0.6305227534927581E-02    0.2279220524301789E-04    0.3161239506904557E+00   -0.5826480623262821E+01   -0.3387073726008724E-05    0.6838729305069791E-09    0.9735490191786766E-10    0.1013064632182648E-11    0.1968202101298999E-08
 -0.5068  -0.2910    0.3951969504570262E-01    0.5145654310767582E-02    0.2384072423676907E-04    0.3324286871184429E+00   -0.4756027490251319E+01   -0.2763971217160019E-05    0.7911677701866182E-09    0.7912015487221424E-10    0.1102978819389477E-11    0.1790626345116175E-08
 -0.5075  -0.3163    0.3644409817444254E-01    0.4025903366870933E-02    0.2352944261947019E-04    0.3492019154006460E+00   -0.3722892711208702E+01   -0.2162153456673746E-05    0.8632084422255382E-09    0.6066414037775303E-10    0.1155686657483557E-11    0.1610750687344731E-08
 -0.5082  -0.3402    0.3167214350574820E-01    0.3009257397266453E-02    0.2204692836357464E-04    0.3662707499957488E+00   -0.2785046833837520E+01   -0.1615729372159472E-05    0.9030525563447078E-09    0.4357708638380586E-10    0.1187952514136725E-11    0.1428940332379169E-08
 -0.5087  -0.3625    0.2560632845181879E-01    0.2137693456156764E-02    0.1969686807125989E-04    0.3834304070076644E+00   -0.1980956302907702E+01   -0.1147287166835933E-05    0.9174420112501025E-09    0.2902164619733583E-10    0.1149733086514004E-11    0.1245770528401913E-08
 -0.5093  -0.3833    0.1869802351075949E-01    0.1430531902507801E-02    0.1682221407674788E-04    0.4004383152583917E+00   -0.1328323680606156E+01   -0.7672621970123947E-06    0.9145502480323309E-09    0.1757310963412806E-10    0.1125918802635795E-11    0.1063606223927760E-08
 -0.5098  -0.4023    0.1138587565888598E-01    0.8877790802879360E-03    0.1371756158571785E-04    0.4170120404747963E+00   -0.8271829595846413E+00   -0.4756178832757695E-06    0.9021205067683002E-09    0.9268214667956798E-11    0.1051991826983567E-11    0.8853670418335069E-09
 -0.5103  -0.4196    0.4058479734254086E-02    0.4959876970224872E-03    0.1060130665718417E-04    0.4328358113336001E+00   -0.4651734418000187E+00   -0.2651618169610382E-06    0.8861503579538077E-09    0.3750230161136958E-11    0.1016214890015021E-11    0.7153330792292190E-09
 -0.5107  -0.4350   -0.2959500889011631E-02    0.2341970104415005E-03    0.7591580706627340E-05    0.4475781113830453E+00   -0.2230180614713962E+00   -0.1245624912597692E-06    0.8706348957748800E-09    0.4713902879149856E-12    0.9635139908148460E-12    0.5573947518822120E-09
 -0.5110  -0.4485   -0.9406288061777164E-02    0.7819710569691021E-04    0.4774547295779191E-05    0.4609181033763516E+00   -0.7830564801213115E-01   -0.4089153400979043E-07    0.8576515643510252E-09   -0.1179410735741016E-11    0.9406052325910963E-12    0.4147663974427007E-09
 -0.5113  -0.4600   -0.1507634589610320E-01    0.2513158566457065E-05    0.2234679092775669E-05    0.4725738988944994E+00   -0.7432358471361479E-02   -0.3863920849488881E-09    0.8479699642113814E-09   -0.1758593271006248E-11    0.9086828511861711E-12    0.2905313385703767E-09
 -0.5116  -0.4695   -0.1981707735720379E-01   -0.1925761010406936E-04    0.2096859091546675E-06    0.4823237556325368E+00    0.1418148661494750E-01    0.1098719955063681E-07    0.8412537508511835E-09   -0.1747088584913570E-11    0.8861273260302172E-12    0.1868735366103436E-09
 -0.5118  -0.4770   -0.2353095724838768E-01   -0.1365063006900865E-04   -0.9931120068925074E-06    0.4900136749884128E+00    0.1091352683386812E-01    0.7683077385081440E-08    0.8367130224350844E-09   -0.1505637628462786E-11    0.8510093671421082E-12    0.1054440679736091E-09
 -0.5119  -0.4823   -0.2617964832882950E-01   -0.3612302787453255E-05   -0.1006325617082259E-05    0.4955505873140191E+00    0.3474854234807368E-02    0.1892633193584102E-08    0.8325368925071047E-09   -0.1243211046261794E-11    0.9197885508793746E-12    0.4685915305953359E-10
 -0.5120  -0.4855   -0.2776950469072169E-01   -0.7729386109833071E-07   -0.7759450849678214E-07    0.4988862741717924E+00    0.4656930690364310E-03    0.6895863140260605E-10    0.8283190157539443E-09   -0.6378312591634461E-12    0.6457777021462441E-12    0.1164099960632332E-10
 -0.5120  -0.4866   -0.2830225179276524E-01    0.0000000000000000E+00    0.0000000000000000E+00    0.5000000000000000E+00   -0.1518988971727830E-03    0.0000000000000000E+00    0.0000000000000000E+00    0.0000000000000000E+00    0.0000000000000000E+00    0.0000000000000000E+00
 -0.4823   0.5130    0.2321208205738976E-01    0.0000000000000000E+00    0.0000000000000000E+00   -0.5000000000000000E+00   -0.4571423155218942E-02    0.0000000000000000E+00    0.0000000000000000E+00    0.0000000000000000E+00    0.0000000000000000E+00    0.0000000000000000E+00
 -0.4823   0.5119    0.2374392437834598E-01    0.5000555555757781E-06   -0.3348340781021163E-05   -0.4962915513138210E+00   -0.1643882552233246E-02   -0.2015469507310071E-08    0.9131456959934198E-09   -0.1568822654250679E-12   -0.2779907380678903E-12   -0.9782521201515820E-11
 -0.4824   0.5087    0.2532644425941378E-01    0.4971388169551849E-06   -0.4957891594134411E-06   -0.4851835353350126E+00    0.5710092134223256E-02   -0.1210694326874121E-07    0.9129606382950878E-09   -0.3698313356947924E-12   -0.6469529773012184E-12   -0.3927417397374400E-10
 -0.4825   0.5034    0.2790826070277556E-01   -0.2993342666069849E-04    0.2131772465788665E-04   -0.4667362658040253E+00    0.1835903720709405E-01    0.3948352447472431E-07    0.9134359050394503E-09   -0.5394322141749619E-12   -0.5936553332253069E-12   -0.8734344237454339E-10
 -0.4827   0.4960    0.3135948441804385E-01   -0.1601297361453654E-03    0.5282332393614267E-04   -0.4410751244882231E+00    0.4752519550266424E-01    0.3194601134768801E-06    0.9155125962889699E-09   -0.1554492645716721E-11   -0.2020970196747740E-12   -0.1545658436311048E-09
 -0.4830   0.4865    0.3544394483098692E-01   -0.4492998305746919E-03    0.7923432360336673E-04   -0.4084166825415556E+00    0.1066953592077669E+00    0.9597716555965832E-06    0.9194932523715060E-09   -0.4829896465413652E-11    0.3257810687884444E-12   -0.2388755668963904E-09
 -0.4833   0.4750    0.3984040537250084E-01   -0.8996306926806919E-03    0.9124092657348061E-04   -0.3690884922046586E+00    0.1985024505640481E+00    0.1960551049386121E-05    0.9248252372251464E-09   -0.1149069207839748E-10    0.8129573403348189E-12   -0.3369040740830442E-09
 -0.4836   0.4615    0.4418650228034183E-01   -0.1445444683784165E-02    0.8545803557172723E-04   -0.3235459732272915E+00    0.3104750945253246E+00    0.3172901645679178E-05    0.9304110190622161E-09   -0.2184390862636221E-10    0.1141933769766013E-11   -0.4417024350444887E-09
 -0.4840   0.4460    0.4812178056943966E-01   -0.1966781608533361E-02    0.6272812450308055E-04   -0.2724100057053246E+00    0.4173894387544824E+00    0.4331911151752285E-05    0.9349867026442471E-09   -0.3523790287340844E-10    0.1233402269207318E-11   -0.5394899457722424E-09