 title="result"
 variables="x","y","P","u","v","t","omega","psi","RES1","RES2","RES3","RES4"
zone,j= 49,i= 49,f=point
 -0.2865   0.6464    0.2523177516410266E-01    0.0000000000000000E+00    0.0000000000000000E+00   -0.5000000000000000E+00    0.0000000000000000E+00    0.0000000000000000E+00    0.0000000000000000E+00    0.0000000000000000E+00    0.0000000000000000E+00    0.0000000000000000E+00
 -0.2869   0.6454    0.2572818128875786E-01    0.0000000000000000E+00    0.0000000000000000E+00   -0.4952741951475625E+00    0.2344792357461144E-03    0.0000000000000000E+00    0.0000000000000000E+00    0.0000000000000000E+00    0.0000000000000000E+00    0.0000000000000000E+00
 -0.2881   0.6425    0.2717360328971392E-01    0.0000000000000000E+00    0.0000000000000000E+00   -0.4811196441484147E+00   -0.4383438237769699E-02    0.0000000000000000E+00    0.0000000000000000E+00    0.0000000000000000E+00    0.0000000000000000E+00    0.0000000000000000E+00
 -0.2900   0.6375    0.2949415288570931E-01    0.0000000000000000E+00    0.0000000000000000E+00   -0.4576209315287928E+00   -0.3153225616409831E-01    0.0000000000000000E+00    0.0000000000000000E+00    0.0000000000000000E+00    0.0000000000000000E+00    0.0000000000000000E+00
 -0.2927   0.6305    0.3261868577224167E-01    0.0000000000000000E+00    0.0000000000000000E+00   -0.4249748204026615E+00   -0.9099343429704335E-01    0.0000000000000000E+00    0.0000000000000000E+00    0.0000000000000000E+00    0.0000000000000000E+00    0.0000000000000000E+00
 -0.2961   0.6217    0.3642343553079130E-01    0.0000000000000000E+00    0.0000000000000000E+00   -0.3835807964423125E+00   -0.1771131954398172E+00    0.0000000000000000E+00    0.0000000000000000E+00    0.0000000000000000E+00    0.0000000000000000E+00    0.0000000000000000E+00
 -0.3002   0.6109    0.4069988040705297E-01    0.0000000000000000E+00    0.0000000000000000E+00   -0.3341696818427155E+00   -0.2745947732471912E+00    0.0000000000000000E+00    0.0000000000000000E+00    0.0000000000000000E+00    0.0000000000000000E+00    0.0000000000000000E+00
 -0.3051   0.5983    0.4515100707204810E-01    0.0000000000000000E+00    0.0000000000000000E+00   -0.2779464045365388E+00   -0.3644506279489529E+00    0.0000000000000000E+00    0.0000000000000000E+00    0.0000000000000000E+00    0.0000000000000000E+00    0.0000000000000000E+00
 -0.3107   0.5839    0.4940349951071784E-01    0.0000000000000000E+00    0.0000000000000000E+00   -0.2166969078892304E+00   -0.4306790388522025E+00    0.0000000000000000E+00    0.0000000000000000E+00    0.0000000000000000E+00    0.0000000000000000E+00    0.0000000000000000E+00
 -0.3169   0.5678    0.5304274641055976E-01    0.0000000000000000E+00    0.0000000000000000E+00   -0.1527962012247826E+00   -0.4670632820928524E+00    0.0000000000000000E+00    0.0000000000000000E+00    0.0000000000000000E+00    0.0000000000000000E+00    0.0000000000000000E+00
 -0.3237   0.5500    0.5566796531932203E-01    0.0000000000000000E+00    0.0000000000000000E+00   -0.8907112629723640E-01   -0.4826784916591881E+00    0.0000000000000000E+00    0.0000000000000000E+00    0.0000000000000000E+00    0.0000000000000000E+00    0.0000000000000000E+00
 -0.3312   0.5307    0.5696193301773712E-01    0.0000000000000000E+00    0.0000000000000000E+00   -0.2851691621626923E-01   -0.5026041366443118E+00    0.0000000000000000E+00    0.0000000000000000E+00    0.0000000000000000E+00    0.0000000000000000E+00    0.0000000000000000E+00
 -0.3393   0.5098    0.5675106830182254E-01    0.0000000000000000E+00    0.0000000000000000E+00    0.2608428583636645E-01   -0.5615275737767232E+00    0.0000000000000000E+00    0.0000000000000000E+00    0.0000000000000000E+00    0.0000000000000000E+00    0.0000000000000000E+00
 -0.3478   0.4875    0.5502972185780122E-01    0.0000000000000000E+00    0.0000000000000000E+00    0.7256866602477680E-01   -0.6926614543855711E+00    0.0000000000000000E+00    0.0000000000000000E+00    0.0000000000000000E+00    0.0000000000000000E+00    0.0000000000000000E+00
 -0.3570   0.4639    0.5193722134666409E-01    0.0000000000000000E+00    0.0000000000000000E+00    0.1097377789387419E+00   -0.9188341437310688E+00    0.0000000000000000E+00    0.0000000000000000E+00    0.0000000000000000E+00    0.0000000000000000E+00    0.0000000000000000E+00
 -0.3665   0.4391    0.4770701340718103E-01    0.0000000000000000E+00    0.0000000000000000E+00    0.1375541620034742E+00   -0.1251100469318552E+01    0.0000000000000000E+00    0.0000000000000000E+00    0.0000000000000000E+00    0.0000000000000000E+00    0.0000000000000000E+00
 -0.3765   0.4132    0.4261862945449058E-01    0.0000000000000000E+00    0.0000000000000000E+00    0.1570911720829747E+00   -0.1693273778172047E+01    0.0000000000000000E+00    0.0000000000000000E+00    0.0000000000000000E+00    0.0000000000000000E+00    0.0000000000000000E+00
 -0.3869   0.3863    0.3697085640788402E-01    0.0000000000000000E+00    0.0000000000000000E+00    0.1702041181529014E+00   -0.2246272926263608E+01    0.0000000000000000E+00    0.0000000000000000E+00    0.0000000000000000E+00    0.0000000000000000E+00    0.0000000000000000E+00
 -0.3976   0.3585    0.3107338753648448E-01    0.0000000000000000E+00    0.0000000000000000E+00    0.1790203326268509E+00   -0.2908427550100784E+01    0.0000000000000000E+00    0.0000000000000000E+00    0.0000000000000000E+00    0.0000000000000000E+00    0.0000000000000000E+00
 -0.4087   0.3299    0.2524743111320536E-01    0.0000000000000000E+00    0.0000000000000000E+00    0.1854523987779858E+00   -0.3672770365968618E+01    0.0000000000000000E+00    0.0000000000000000E+00    0.0000000000000000E+00    0.0000000000000000E+00    0.0000000000000000E+00
 -0.4199   0.3007    0.1982644615004795E-01    0.0000000000000000E+00    0.0000000000000000E+00    0.1909164412478336E+00   -0.4524235282085763E+01    0.0000000000000000E+00    0.0000000000000000E+00    0.0000000000000000E+00    0.0000000000000000E+00    0.0000000000000000E+00
 -0.4314   0.2710    0.1515079014796795E-01    0.0000000000000000E+00    0.0000000000000000E+00    0.1962991957165481E+00   -0.5438650225218659E+01    0.0000000000000000E+00    0.0000000000000000E+00    0.0000000000000000E+00    0.0000000000000000E+00    0.0000000000000000E+00
 -0.4430   0.2408    0.1155220904151539E-01    0.0000000000000000E+00    0.0000000000000000E+00    0.2020844899549941E+00   -0.6383782094513799E+01    0.0000000000000000E+00    0.0000000000000000E+00    0.0000000000000000E+00    0.0000000000000000E+00    0.0000000000000000E+00
 -0.4547   0.2105    0.9329416756778607E-02    0.0000000000000000E+00    0.0000000000000000E+00    0.2085150966240213E+00   -0.7321714588560591E+01    0.0000000000000000E+00    0.0000000000000000E+00    0.0000000000000000E+00    0.0000000000000000E+00    0.0000000000000000E+00
 -0.4665   0.1799    0.8719423792054756E-02    0.0000000000000000E+00    0.0000000000000000E+00    0.2157145021511233E+00   -0.8211442680531828E+01    0.0000000000000000E+00    0.0000000000000000E+00    0.0000000000000000E+00    0.0000000000000000E+00    0.0000000000000000E+00
 -0.4783   0.1494    0.9869801512171648E-02    0.0000000000000000E+00    0.0000000000000000E+00    0.2237540914470608E+00   -0.9010826130300842E+01    0.0000000000000000E+00    0.0000000000000000E+00    0.0000000000000000E+00    0.0000000000000000E+00    0.0000000000000000E+00
 -0.4900   0.1191    0.1281426514945422E-01    0.0000000000000000E+00    0.0000000000000000E+00    0.2326817778109408E+00   -0.9677671222036516E+01    0.0000000000000000E+00    0.0000000000000000E+00    0.0000000000000000E+00    0.0000000000000000E+00    0.0000000000000000E+00
 -0.5016   0.0889    0.1745219231705252E-01    0.0000000000000000E+00    0.0000000000000000E+00    0.2425307968761859E+00   -0.1017047799327952E+02    0.0000000000000000E+00    0.0000000000000000E+00    0.0000000000000000E+00    0.0000000000000000E+00    0.0000000000000000E+00
 -0.5131   0.0592    0.2353299680711958E-01    0.0000000000000000E+00    0.0000000000000000E+00    0.2533201742011819E+00   -0.1044984081959723E+02    0.0000000000000000E+00    0.0000000000000000E+00    0.0000000000000000E+00    0.0000000000000000E+00    0.0000000000000000E+00
 -0.5243   0.0300    0.3064971220930419E-01    0.0000000000000000E+00    0.0000000000000000E+00    0.2650521535525140E+00   -0.1048152357789028E+02    0.0000000000000000E+00    0.0000000000000000E+00    0.0000000000000000E+00    0.0000000000000000E+00    0.0000000000000000E+00
 -0.5354   0.0014    0.3824993563151911E-01    0.0000000000000000E+00    0.0000000000000000E+00    0.2777088046597948E+00   -0.1024165332409668E+02    0.0000000000000000E+00    0.0000000000000000E+00    0.0000000000000000E+00    0.0000000000000000E+00    0.0000000000000000E+00
 -0.5461  -0.0264    0.4567387817447737E-01    0.0000000000000000E+00    0.0000000000000000E+00    0.2912489497334214E+00   -0.9723457361590221E+01    0.0000000000000000E+00    0.0000000000000000E+00    0.0000000000000000E+00    0.0000000000000000E+00    0.0000000000000000E+00
 -0.5565  -0.0533    0.5222478352938251E-01    0.0000000000000000E+00    0.0000000000000000E+00    0.3056061831498932E+00   -0.8943660904827606E+01    0.0000000000000000E+00    0.0000000000000000E+00    0.0000000000000000E+00    0.0000000000000000E+00    0.0000000000000000E+00
 -0.5665  -0.0792    0.5726574518581921E-01    0.0000000000000000E+00    0.0000000000000000E+00    0.3206884079955462E+00   -0.7945785876092700E+01    0.0000000000000000E+00    0.0000000000000000E+00    0.0000000000000000E+00    0.0000000000000000E+00    0.0000000000000000E+00
 -0.5760  -0.1040    0.6032228022238571E-01    0.0000000000000000E+00    0.0000000000000000E+00    0.3363787088059460E+00   -0.6797776881954552E+01    0.0000000000000000E+00    0.0000000000000000E+00    0.0000000000000000E+00    0.0000000000000000E+00    0.0000000000000000E+00
 -0.5851  -0.1276    0.6116048938257130E-01    0.0000000000000000E+00    0.0000000000000000E+00    0.3525365852191562E+00   -0.5583180097151574E+01    0.0000000000000000E+00    0.0000000000000000E+00    0.0000000000000000E+00    0.0000000000000000E+00    0.0000000000000000E+00
 -0.5937  -0.1499    0.5981450740231251E-01    0.0000000000000000E+00    0.0000000000000000E+00    0.3689979616664130E+00   -0.4387774284615923E+01    0.0000000000000000E+00    0.0000000000000000E+00    0.0000000000000000E+00    0.0000000000000000E+00    0.0000000000000000E+00
 -0.6018  -0.1708    0.5655500034975751E-01    0.0000000000000000E+00    0.0000000000000000E+00    0.3855725644045027E+00   -0.3285796870348276E+01    0.0000000000000000E+00    0.0000000000000000E+00    0.0000000000000000E+00    0.0000000000000000E+00    0.0000000000000000E+00
 -0.6093  -0.1901    0.5181345710107076E-01    0.0000000000000000E+00    0.0000000000000000E+00    0.4020387127077913E+00   -0.2330072429046560E+01    0.0000000000000000E+00    0.0000000000000000E+00    0.0000000000000000E+00    0.0000000000000000E+00    0.0000000000000000E+00
 -0.6161  -0.2079    0.4609136627811518E-01    0.0000000000000000E+00    0.0000000000000000E+00    0.4181381405889077E+00   -0.1548546072475315E+01    0.0000000000000000E+00    0.0000000000000000E+00    0.0000000000000000E+00    0.0000000000000000E+00    0.0000000000000000E+00
 -0.6223  -0.2241    0.3988270381529449E-01    0.0000000000000000E+00    0.0000000000000000E+00    0.4335758806114982E+00   -0.9468090593045652E+00    0.0000000000000000E+00    0.0000000000000000E+00    0.0000000000000000E+00    0.0000000000000000E+00    0.0000000000000000E+00
 -0.6279  -0.2384    0.3362541950044237E-01    0.0000000000000000E+00    0.0000000000000000E+00    0.4480304519888317E+00   -0.5141936336320508E+00    0.0000000000000000E+00    0.0000000000000000E+00    0.0000000000000000E+00    0.0000000000000000E+00    0.0000000000000000E+00
 -0.6327  -0.2510    0.2768266751327525E-01    0.0000000000000000E+00    0.0000000000000000E+00    0.4611761790898813E+00   -0.2301215219874086E+00    0.0000000000000000E+00    0.0000000000000000E+00    0.0000000000000000E+00    0.0000000000000000E+00    0.0000000000000000E+00
 -0.6369  -0.2618    0.2234325929371342E-01    0.0000000000000000E+00    0.0000000000000000E+00    0.4727133225605690E+00   -0.6841345025976406E-01    0.0000000000000000E+00    0.0000000000000000E+00    0.0000000000000000E+00    0.0000000000000000E+00    0.0000000000000000E+00
 -0.6403  -0.2707    0.1782696589597540E-01    0.0000000000000000E+00    0.0000000000000000E+00    0.4823962928938966E+00    0.1471896835309904E-02    0.0000000000000000E+00    0.0000000000000000E+00    0.0000000000000000E+00    0.0000000000000000E+00    0.0000000000000000E+00
 -0.6430  -0.2776    0.1428250720664475E-01    0.0000000000000000E+00    0.0000000000000000E+00    0.4900494908766745E+00    0.1403940551549607E-01    0.0000000000000000E+00    0.0000000000000000E+00    0.0000000000000000E+00    0.0000000000000000E+00    0.0000000000000000E+00
 -0.6449  -0.2826    0.1177718922814348E-01    0.0000000000000000E+00    0.0000000000000000E+00    0.4955656382896426E+00    0.5127306537739650E-02    0.0000000000000000E+00    0.0000000000000000E+00    0.0000000000000000E+00    0.0000000000000000E+00    0.0000000000000000E+00
 -0.6461  -0.2856    0.1029153762749691E-01    0.0000000000000000E+00    0.0000000000000000E+00    0.4988899879653205E+00   -0.6935841149280880E-04    0.0000000000000000E+00    0.0000000000000000E+00    0.0000000000000000E+00    0.0000000000000000E+00    0.0000000000000000E+00
 -0.6464  -0.2865    0.9795870267750771E-02    0.0000000000000000E+00    0.0000000000000000E+00    0.5000000000000000E+00    0.0000000000000000E+00    0.0000000000000000E+00    0.0000000000000000E+00    0.0000000000000000E+00    0.0000000000000000E+00    0.0000000000000000E+00
 -0.2856   0.6461    0.2542504861332515E-01    0.0000000000000000E+00    0.0000000000000000E+00   -0.5000000000000000E+00    0.2345426512659817E-03    0.0000000000000000E+00    0.0000000000000000E+00    0.0000000000000000E+00    0.0000000000000000E+00    0.0000000000000000E+00
 -0.2859   0.6451    0.2592054588698893E-01    0.7561429951176678E-07   -0.7556224553563318E-07   -0.4952740638411509E+00   -0.6131133210456444E-03   -0.4137755444581573E-10    0.1543129459012204E-08   -0.1055544540662368E-12   -0.7878550242756965E-13   -0.5123578102582405E-11
 -0.2871   0.6421    0.2736702332845826E-01    0.5633228252621115E-05   -0.1748981842931133E-05   -0.4811191130309815E+00   -0.6492830925349396E-02   -0.2823137144409629E-08    0.1542751582300078E-08   -0.9383986643296538E-13   -0.1312491781924052E-12   -0.1991470616885538E-10
 -0.2890   0.6371    0.2968860455397852E-01    0.3332093213880184E-04   -0.3754258378070034E-05   -0.4576196992574321E+00   -0.3088470252936084E-01   -0.1795693008050974E-07    0.1543311416163373E-08   -0.1319131436028353E-12   -0.1328485932372558E-12   -0.4389323106368526E-10
 -0.2917   0.6302    0.3280657581192441E-01    0.9407040767692652E-04   -0.4901472132614039E-05   -0.4249725323941116E+00   -0.8490285720469387E-01   -0.5092400424250866E-07    0.1545247147252682E-08   -0.5681913273214434E-12   -0.8617065394567192E-13   -0.7733827814271343E-10
 -0.2951   0.6213    0.3659614011053323E-01    0.1832244246382656E-03   -0.5081891153220096E-05   -0.3835770711167000E+00   -0.1652842577244059E+00   -0.9921221018625418E-07    0.1547823591518949E-08   -0.1744038941042803E-11   -0.4819755705653961E-13   -0.1169432745085075E-09
 -0.2992   0.6105    0.4085024762711387E-01    0.2852523286858843E-03   -0.4373817109737711E-05   -0.3341641796166418E+00   -0.2584039738323789E+00   -0.1542166514307235E-06    0.1549732174185858E-08   -0.3753101995851438E-11   -0.3503794476777955E-13   -0.1567786039879948E-09
 -0.3041   0.5980    0.4527378662280014E-01    0.3804198730692944E-03   -0.3170053634702467E-05   -0.2779389218921834E+00   -0.3463272916851444E+00   -0.2053547214725084E-06    0.1549494562172460E-08   -0.6445025069190535E-11   -0.1457341192168116E-13   -0.1870830990124972E-09
 -0.3097   0.5836    0.4949611643820922E-01    0.4518881285447819E-03   -0.1820148223844652E-05   -0.2166874660150760E+00   -0.4136214995557278E+00   -0.2434985397940245E-06    0.1545817731631038E-08   -0.9481249119147606E-11   -0.5409735159833673E-13   -0.1905549537606355E-09
 -0.3159   0.5674    0.5310563838758021E-01    0.4929875255824428E-03   -0.7855680794135200E-06   -0.1527850917439433E+00   -0.4540205340220705E+00   -0.2651254875448545E-06    0.1537613653372280E-08   -0.1245695213647480E-10   -0.4348951754273855E-13   -0.1435845331521080E-09
 -0.3227   0.5497    0.5570456296765840E-01    0.5130579755388783E-03   -0.4235479690589518E-06   -0.8905889096591481E-01   -0.4759089051134078E+00   -0.2752679503810821E-06    0.1523698862828521E-08   -0.1502734742198086E-10   -0.8015029612229441E-13   -0.1934059856711912E-10
 -0.3302   0.5303    0.5697779796606820E-01    0.5382750442995721E-03   -0.9527378621497605E-06   -0.2850427028676599E-01   -0.5030944161619614E+00   -0.2880804501930954E-06    0.1502493699985855E-08   -0.1695860097315760E-10   -0.1162785145947254E-12    0.2067451349008209E-09
 -0.3383   0.5094    0.5675248420747707E-01    0.6050197211159107E-03   -0.2283026831779548E-05    0.2609655327551194E-01   -0.5688622719970434E+00   -0.3231526781923502E-06    0.1471652725897055E-08   -0.1817721667629613E-10   -0.1383320541448185E-12    0.5498635713419020E-09
 -0.3468   0.4871    0.5502235605918098E-01    0.7482952128876407E-03   -0.4133478221615695E-05    0.7257979211687096E-01   -0.7053876851299853E+00   -0.3993313871370068E-06    0.1428009642825967E-08   -0.1871305888023755E-10   -0.2119276976131346E-12    0.1009223038472840E-08
 -0.3560   0.4635    0.5192555655631641E-01    0.9923257963144556E-03   -0.6157909995454372E-05    0.1097471322842703E+00   -0.9351055327665698E+00   -0.5296133951593682E-06    0.1367855608294666E-08   -0.1861247267420651E-10   -0.2276859256689079E-12    0.1562973188373729E-08
 -0.3655   0.4387    0.4769450154143826E-01    0.1348962332486697E-02   -0.8155292010143543E-05    0.1375613560812448E+00   -0.1269101385107185E+01   -0.7203444330615991E-06    0.1287736988223043E-08   -0.1784791064940450E-10   -0.3295558270721699E-12    0.2167936281882721E-08
 -0.3755   0.4128    0.4260799011328822E-01    0.1822311213079625E-02   -0.1005352426129647E-04    0.1570961498471021E+00   -0.1711237562638565E+01   -0.9737164563343045E-06    0.1185464407194026E-08   -0.1627010332017065E-10   -0.3691283390061528E-12    0.2765983483921097E-08
 -0.3859   0.3859    0.3696406125649941E-01    0.2413244751439954E-02   -0.1185452697211794E-04    0.1702071463677419E+00   -0.2262223764402001E+01   -0.1290215886538551E-05    0.1060932872803955E-08   -0.1362353285738749E-10   -0.4386005447720720E-12    0.3296719300327489E-08
 -0.3966   0.3581    0.3107139924639822E-01    0.3119733372132351E-02   -0.1351419270032326E-04    0.1790218856817479E+00   -0.2919938129025323E+01   -0.1668801781612644E-05    0.9166162932838784E-09   -0.9569258579977813E-11   -0.4894695759816159E-12    0.3713258478477144E-08
 -0.4077   0.3295    0.2525001253031156E-01    0.3934030188521510E-02   -0.1494493730728735E-04    0.1854529882352041E+00   -0.3676874183917028E+01   -0.2105374544529787E-05    0.7573731850007981E-09   -0.3775164209018911E-11   -0.5916100942471303E-12    0.3992400076334446E-08
 -0.4189   0.3003    0.1983219012401352E-01    0.4839764833422282E-02   -0.1601546615058891E-04    0.1909164805709523E+00   -0.4517513175503856E+01   -0.2591220745654913E-05    0.5901675537156592E-09    0.4024652139333895E-11   -0.6413480857503373E-12    0.4136035214460324E-08
 -0.4304   0.2706    0.1515735082813395E-01    0.5810936356243450E-02   -0.1660916862952529E-04    0.1962989501275600E+00   -0.5417452932110225E+01   -0.3112437456656463E-05    0.4234590525453719E-09    0.1397000570779738E-10   -0.6910860772535443E-12    0.4163693308103372E-08
 -0.4420   0.2405    0.1155659960363339E-01    0.6813076995504557E-02   -0.1662975078347968E-04    0.2020840972467368E+00   -0.6344531593754927E+01   -0.3650577390630190E-05    0.2667095155839405E-09    0.2593254777583098E-10   -0.7237405119653317E-12    0.4102522474080245E-08
 -0.4537   0.2101    0.9328292240017334E-02    0.7805809353078872E-02   -0.1602653158613033E-04    0.2085146144032167E+00   -0.7261234372277904E+01   -0.4183979103500513E-05    0.1297670269850837E-09    0.3948097404560258E-10   -0.7535916335399406E-12    0.3978900904068328E-08
 -0.4655   0.1796    0.8709252601541598E-02    0.8745614077909936E-02   -0.1476778396717819E-04    0.2157139481843213E+00   -0.8127259928079967E+01   -0.4689292741796143E-05    0.2194582016112889E-10    0.5388461898903074E-10   -0.7399914014882825E-12    0.3814258808104709E-08
 -0.4773   0.1491    0.9846940416927850E-02    0.9587902516365749E-02   -0.1283848054766366E-04    0.2237534673667808E+00   -0.8901450656416017E+01   -0.5142544100714412E-05   -0.4900592431855699E-10    0.6817663100733284E-10   -0.6912040384499107E-12    0.3624880869426694E-08
 -0.4890   0.1187    0.1277493879154054E-01    0.1028816734365562E-01   -0.1021273583465043E-04    0.2326810801147799E+00   -0.9542846768419492E+01   -0.5519806894972384E-05   -0.7793195255789698E-10    0.8122641448338186E-10   -0.6006861674734409E-12    0.3421472120380964E-08
 -0.5006   0.0886    0.1739249712266844E-01    0.1080278376403367E-01   -0.6868320257044564E-05    0.2425300214071363E+00   -0.1001145219289269E+02   -0.5797569751589029E-05   -0.6325905597959203E-10    0.9187034466506816E-10   -0.4825098653959969E-12    0.3212239047672982E-08
 -0.5121   0.0588    0.2344898533556216E-01    0.1109050743441792E-01   -0.2795362928555911E-05    0.2533193180101498E+00   -0.1026961401439094E+02   -0.5953607096459394E-05   -0.7634622968544225E-11    0.9903267095268120E-10   -0.3537673626263782E-12    0.3002211970346003E-08
 -0.5233   0.0296    0.3053769314761517E-01    0.1111572694688173E-01    0.1953882299981624E-05    0.2650512157628366E+00   -0.1028504504502269E+02   -0.5968650689149602E-05    0.8179712766495650E-10    0.1017944617487387E-09   -0.1501142959936530E-12    0.2794386054147391E-08
 -0.5344   0.0010    0.3810696997355690E-01    0.1085392006001274E-01    0.7230260159811420E-05    0.2777077867314611E+00   -0.1003579942638512E+02   -0.5829413762728671E-05    0.1937542747770804E-09    0.9961931279889313E-10    0.1566802243502252E-13    0.2590958305542790E-08
 -0.5451  -0.0268    0.4549847189113071E-01    0.1029868085995446E-01    0.1274424545769347E-04    0.2912478550595768E+00   -0.9516691184968936E+01   -0.5532290854135616E-05    0.3141721188759661E-09    0.9248635191028143E-10    0.2235364671143714E-12    0.2392518821947576E-08
 -0.5555  -0.0537    0.5201753939794112E-01    0.9468338488757616E-02    0.1807625198814551E-04    0.3056050158896839E+00   -0.8745230262788160E+01   -0.5087046991264808E-05    0.4281805673911343E-09    0.8097861270428552E-10    0.4090477956353311E-12    0.2199030645078093E-08
 -0.5655  -0.0796    0.5702979249713061E-01    0.8409285573543741E-02    0.2272077643939224E-04    0.3206871713121712E+00   -0.7764577084345747E+01   -0.4518517629771086E-05    0.5229095281777951E-09    0.6632627780334133E-10    0.5521555435095138E-12    0.2009383728851510E-08
 -0.5750  -0.1044    0.6006316473351537E-01    0.7193370762586792E-02    0.2619518410979879E-04    0.3363774031619132E+00   -0.6641004228555032E+01   -0.3865356741794405E-05    0.5899256430574873E-09    0.5022593452252977E-10    0.6900036098045348E-12    0.1822810897014748E-08
 -0.5841  -0.1280    0.6088553003032474E-01    0.5908586015118316E-02    0.2815059192344966E-04    0.3525352078870848E+00   -0.5455365913236026E+01   -0.3174879687360675E-05    0.6267470292753430E-09    0.3450290053663707E-10    0.7509270982808403E-12    0.1637885469613076E-08
 -0.5927  -0.1503    0.5953166913650908E-01    0.4645070435745500E-02    0.2846630815493550E-04    0.3689965088169738E+00   -0.4290265329167288E+01   -0.2495684181476842E-05    0.6365292390397848E-09    0.2074349025882327E-10    0.7876199692447017E-12    0.1454023387803538E-08
 -0.6008  -0.1712    0.5627174288888515E-01    0.3480738693415013E-02    0.2726145991782070E-04    0.3855710366228530E+00   -0.3217042875930072E+01   -0.1869698060971968E-05    0.6264080851248188E-09    0.9990258620362624E-11    0.7722988915048745E-12    0.1271580044384657E-08
 -0.6083  -0.1905    0.5153580308833354E-01    0.2471013052285732E-02    0.2484230677157178E-04    0.4020371233402070E+00   -0.2286391348913232E+01   -0.1326852156446907E-05    0.6048671216674073E-09    0.2577535407333187E-11    0.7456119055504473E-12    0.1090731076638929E-08
 -0.6151  -0.2083    0.4582357364746070E-01    0.1645222610985204E-02    0.2159098441788429E-04    0.4181365242089455E+00   -0.1525184706797059E+01   -0.8828747804254391E-06    0.5795609825387515E-09   -0.1755769141187358E-11    0.6583206202392944E-12    0.9139477299968668E-09
 -0.6213  -0.2244    0.3962736969448059E-01    0.1009246872011355E-02    0.1786311412247603E-04    0.4335742971426569E+00   -0.9387839033333822E+00   -0.5410216671032010E-06    0.5559485372064188E-09   -0.3660106939751273E-11    0.6528250162673999E-12    0.7435381806780716E-09
 -0.6269  -0.2388    0.3338402128297275E-01    0.5518412975491885E-03    0.1391593768012543E-04    0.4480289820878227E+00   -0.5168924085777880E+00   -0.2951347923874044E-06    0.5370081705702301E-09   -0.3940035797622699E-11    0.6491751580739447E-12    0.5831864366423467E-09
 -0.6317  -0.2514    0.2745595763238767E-01    0.2512342817773762E-03    0.9912766540842783E-05    0.4611749091641186E+00   -0.2393621692944552E+00   -0.1336477437412552E-06    0.5236004997632993E-09   -0.3328767816945799E-11    0.6044192923937430E-12    0.4367808840305409E-09
 -0.6359  -0.2622    0.2213141949659152E-01    0.7955641362251408E-04    0.5995275665703335E-05    0.4727123226374135E+00   -0.8037898873177129E-01   -0.4144770328465035E-07    0.5152512080192073E-09   -0.2427898160295427E-11    0.6046135814230524E-12    0.3071436213003542E-09
 -0.6393  -0.2710    0.1762884434137106E-01    0.4217083452787794E-05    0.2449921615190358E-05    0.4823955952337322E+00   -0.9480620667041391E-02   -0.1285836388367957E-08    0.5105284372336483E-09   -0.1627906143220059E-11    0.6172649197333513E-12    0.1983777439193424E-09
 -0.6420  -0.2780    0.1409420145974234E-01   -0.1153058418971990E-04   -0.1899078867030594E-06    0.4900490788775684E+00    0.7310943249266997E-02    0.6849104142454161E-08    0.5078267982451708E-09   -0.1128456703081149E-11    0.6123839499730388E-12    0.1122210887584407E-09
 -0.6439  -0.2829    0.1159029226811766E-01   -0.4799166434064599E-05   -0.1169205134627117E-05    0.4955654516066541E+00    0.3909201361250523E-02    0.2617585573146707E-08    0.5051589561152342E-09   -0.8785580769832269E-12    0.6624427568990843E-12    0.4990010553200530E-10
 -0.6451  -0.2859    0.1010228948837525E-01   -0.1878649949521844E-06   -0.1879451814838509E-06    0.4988899410919265E+00    0.6765198519708949E-03    0.1601021231969993E-09    0.5021541543042199E-09   -0.4570604962214619E-12    0.4684226097284583E-12    0.1234962777657209E-10
 -0.6454  -0.2869    0.9606408054690003E-02    0.0000000000000000E+00    0.0000000000000000E+00    0.5000000000000000E+00   -0.6897133854509010E-04    0.0000000000000000E+00    0.0000000000000000E+00    0.0000000000000000E+00    0.0000000000000000E+00    0.0000000000000000E+00
 -0.2826   0.6449    0.2601747312121522E-01    0.0000000000000000E+00    0.0000000000000000E+00   -0.5000000000000000E+00   -0.4380816629120971E-02    0.0000000000000000E+00    0.0000000000000000E+00    0.0000000000000000E+00    0.0000000000000000E+00    0.0000000000000000E+00
 -0.2829   0.6439    0.2650646446539851E-01    0.1747792430277168E-05   -0.5631255868633250E-05   -0.4952721178560616E+00   -0.6491507194173244E-02   -0.2821913048710806E-08    0.1542516985236081E-08   -0.1183144294342187E-12   -0.2126783991973635E-12   -0.4809456327116435E-11
 -0.2841   0.6409    0.2794475497948613E-01    0.2655753283447524E-04   -0.2656181078538000E-04   -0.4811112686176375E+00   -0.1284863742141262E-01   -0.5409715265946338E-07    0.1542468928625307E-08   -0.3117235202604318E-12   -0.4166805789296291E-12   -0.1966951688331386E-10
 -0.2860   0.6359    0.3026016223892755E-01    0.1249538387289024E-03   -0.5425756901595789E-04   -0.4576016385276898E+00   -0.3007534485881292E-01   -0.2756432281316128E-06    0.1543016558275268E-08   -0.8278855032073373E-12   -0.2006467908488574E-12   -0.4416403007190262E-10
 -0.2887   0.6290    0.3335798499790980E-01    0.3388509626429794E-03   -0.7277011946525629E-04   -0.4249392649765646E+00   -0.6964414576153687E-01   -0.7592598941428392E-06    0.1544621340554553E-08   -0.2719087108249418E-11    0.2603021964642238E-12   -0.7736279498959941E-10
 -0.2921   0.6201    0.3710523360075655E-01    0.6620708768722537E-03   -0.7667399740651036E-04   -0.3835231576139577E+00   -0.1340189594989114E+00   -0.1481204110046090E-05    0.1546841058019943E-08   -0.7224248976811509E-11    0.7481272545906137E-12   -0.1168002812523827E-09
 -0.2963   0.6094    0.4129626104684894E-01    0.1043502601214312E-02   -0.6759730283548554E-04   -0.3340846287794631E+00   -0.2145783266140208E+00   -0.2321540463023286E-05    0.1548499699993711E-08   -0.1480818245802595E-10    0.1063021198843828E-11   -0.1568502550064466E-09
 -0.3011   0.5968    0.4564093036933375E-01    0.1411737801780606E-02   -0.5023034000050907E-04   -0.2778305402834533E+00   -0.2967529709595212E+00   -0.3120499530071887E-05    0.1548208346247026E-08   -0.2498901086056549E-10    0.1159459681043806E-11   -0.1872300370298063E-09
 -0.3067   0.5824    0.4977609074704376E-01    0.1703326582053554E-02   -0.3048275870111338E-04   -0.2165502208382550E+00   -0.3668518405444430E+00   -0.3738578420270556E-05    0.1544633454128586E-08   -0.3653555930016594E-10    0.1042185435173870E-11   -0.1906012569996562E-09