 title="result"
 variables="x","y","P","u","v","t","omega","psi","RES1","RES2","RES3","RES4"
zone,j= 49,i= 49,f=point
 -0.1942   0.6799    0.2427953565786944E-01    0.0000000000000000E+00    0.0000000000000000E+00   -0.5000000000000000E+00    0.0000000000000000E+00    0.0000000000000000E+00    0.0000000000000000E+00    0.0000000000000000E+00    0.0000000000000000E+00    0.0000000000000000E+00
 -0.1947   0.6790    0.2474507959756600E-01    0.0000000000000000E+00    0.0000000000000000E+00   -0.4949177712367607E+00    0.5141641547785142E-03    0.0000000000000000E+00    0.0000000000000000E+00    0.0000000000000000E+00    0.0000000000000000E+00    0.0000000000000000E+00
 -0.1962   0.6762    0.2608274487285575E-01    0.0000000000000000E+00    0.0000000000000000E+00   -0.4796960495711923E+00   -0.4813234788769410E-02    0.0000000000000000E+00    0.0000000000000000E+00    0.0000000000000000E+00    0.0000000000000000E+00    0.0000000000000000E+00
 -0.1988   0.6715    0.2821120256630966E-01    0.0000000000000000E+00    0.0000000000000000E+00   -0.4544295054742718E+00   -0.4694399546280384E-01    0.0000000000000000E+00    0.0000000000000000E+00    0.0000000000000000E+00    0.0000000000000000E+00    0.0000000000000000E+00
 -0.2024   0.6650    0.3110438060373012E-01    0.0000000000000000E+00    0.0000000000000000E+00   -0.4193471708685324E+00   -0.1489880092850723E+00    0.0000000000000000E+00    0.0000000000000000E+00    0.0000000000000000E+00    0.0000000000000000E+00    0.0000000000000000E+00
 -0.2071   0.6567    0.3471236443468769E-01    0.0000000000000000E+00    0.0000000000000000E+00   -0.3749351099294023E+00   -0.3064432806858075E+00    0.0000000000000000E+00    0.0000000000000000E+00    0.0000000000000000E+00    0.0000000000000000E+00    0.0000000000000000E+00
 -0.2127   0.6467    0.3889000114167068E-01    0.0000000000000000E+00    0.0000000000000000E+00   -0.3221160479246549E+00   -0.4932724480126867E+00    0.0000000000000000E+00    0.0000000000000000E+00    0.0000000000000000E+00    0.0000000000000000E+00    0.0000000000000000E+00
 -0.2192   0.6349    0.4337267119852480E-01    0.0000000000000000E+00    0.0000000000000000E+00   -0.2624396165987211E+00   -0.6722801625595474E+00    0.0000000000000000E+00    0.0000000000000000E+00    0.0000000000000000E+00    0.0000000000000000E+00    0.0000000000000000E+00
 -0.2267   0.6214    0.4778028264016800E-01    0.0000000000000000E+00    0.0000000000000000E+00   -0.1981870656260663E+00   -0.8079515391830885E+00    0.0000000000000000E+00    0.0000000000000000E+00    0.0000000000000000E+00    0.0000000000000000E+00    0.0000000000000000E+00
 -0.2351   0.6063    0.5166029649778479E-01    0.0000000000000000E+00    0.0000000000000000E+00   -0.1322864498367503E+00   -0.8792669318399914E+00    0.0000000000000000E+00    0.0000000000000000E+00    0.0000000000000000E+00    0.0000000000000000E+00    0.0000000000000000E+00
 -0.2444   0.5896    0.5455967218407059E-01    0.0000000000000000E+00    0.0000000000000000E+00   -0.6800050961089041E-01   -0.8896319271675980E+00    0.0000000000000000E+00    0.0000000000000000E+00    0.0000000000000000E+00    0.0000000000000000E+00    0.0000000000000000E+00
 -0.2544   0.5715    0.5611689548522569E-01    0.0000000000000000E+00    0.0000000000000000E+00   -0.8462504328871509E-02   -0.8689271143619763E+00    0.0000000000000000E+00    0.0000000000000000E+00    0.0000000000000000E+00    0.0000000000000000E+00    0.0000000000000000E+00
 -0.2653   0.5519    0.5613954825029170E-01    0.0000000000000000E+00    0.0000000000000000E+00    0.4378894438041097E-01   -0.8643142430283156E+00    0.0000000000000000E+00    0.0000000000000000E+00    0.0000000000000000E+00    0.0000000000000000E+00    0.0000000000000000E+00
 -0.2769   0.5310    0.5463284624535236E-01    0.0000000000000000E+00    0.0000000000000000E+00    0.8714469966827021E-01   -0.9232528189325653E+00    0.0000000000000000E+00    0.0000000000000000E+00    0.0000000000000000E+00    0.0000000000000000E+00    0.0000000000000000E+00
 -0.2892   0.5089    0.5176366557416018E-01    0.0000000000000000E+00    0.0000000000000000E+00    0.1210764765206747E+00   -0.1078845389025156E+01    0.0000000000000000E+00    0.0000000000000000E+00    0.0000000000000000E+00    0.0000000000000000E+00    0.0000000000000000E+00
 -0.3021   0.4857    0.4778933238202738E-01    0.0000000000000000E+00    0.0000000000000000E+00    0.1461060076435223E+00   -0.1346129864291382E+01    0.0000000000000000E+00    0.0000000000000000E+00    0.0000000000000000E+00    0.0000000000000000E+00    0.0000000000000000E+00
 -0.3156   0.4614    0.4299539724617278E-01    0.0000000000000000E+00    0.0000000000000000E+00    0.1636026461363080E+00   -0.1728046902521813E+01    0.0000000000000000E+00    0.0000000000000000E+00    0.0000000000000000E+00    0.0000000000000000E+00    0.0000000000000000E+00
 -0.3296   0.4362    0.3766746458963472E-01    0.0000000000000000E+00    0.0000000000000000E+00    0.1754351808375420E+00   -0.2222792768168088E+01    0.0000000000000000E+00    0.0000000000000000E+00    0.0000000000000000E+00    0.0000000000000000E+00    0.0000000000000000E+00
 -0.3441   0.4101    0.3208910576226980E-01    0.0000000000000000E+00    0.0000000000000000E+00    0.1835571701268975E+00   -0.2826520277231502E+01    0.0000000000000000E+00    0.0000000000000000E+00    0.0000000000000000E+00    0.0000000000000000E+00    0.0000000000000000E+00
 -0.3590   0.3834    0.2654938773017550E-01    0.0000000000000000E+00    0.0000000000000000E+00    0.1896535306434365E+00   -0.3531840860326338E+01    0.0000000000000000E+00    0.0000000000000000E+00    0.0000000000000000E+00    0.0000000000000000E+00    0.0000000000000000E+00
 -0.3742   0.3560    0.2134813276661979E-01    0.0000000000000000E+00    0.0000000000000000E+00    0.1949545540127750E+00   -0.4325361934137066E+01    0.0000000000000000E+00    0.0000000000000000E+00    0.0000000000000000E+00    0.0000000000000000E+00    0.0000000000000000E+00
 -0.3897   0.3281    0.1679444022642132E-01    0.0000000000000000E+00    0.0000000000000000E+00    0.2002339626521636E+00   -0.5186502330535692E+01    0.0000000000000000E+00    0.0000000000000000E+00    0.0000000000000000E+00    0.0000000000000000E+00    0.0000000000000000E+00
 -0.4053   0.2999    0.1319581532365202E-01    0.0000000000000000E+00    0.0000000000000000E+00    0.2059216293648409E+00   -0.6087987377100390E+01    0.0000000000000000E+00    0.0000000000000000E+00    0.0000000000000000E+00    0.0000000000000000E+00    0.0000000000000000E+00
 -0.4212   0.2715    0.1083941296154023E-01    0.0000000000000000E+00    0.0000000000000000E+00    0.2122395566217347E+00   -0.6997501004391137E+01    0.0000000000000000E+00    0.0000000000000000E+00    0.0000000000000000E+00    0.0000000000000000E+00    0.0000000000000000E+00
 -0.4370   0.2429    0.9968745905957288E-02    0.0000000000000000E+00    0.0000000000000000E+00    0.2193046132727139E+00   -0.7879545151131123E+01    0.0000000000000000E+00    0.0000000000000000E+00    0.0000000000000000E+00    0.0000000000000000E+00    0.0000000000000000E+00
 -0.4529   0.2143    0.1076005747318226E-01    0.0000000000000000E+00    0.0000000000000000E+00    0.2271864998305558E+00   -0.8696742269080008E+01    0.0000000000000000E+00    0.0000000000000000E+00    0.0000000000000000E+00    0.0000000000000000E+00    0.0000000000000000E+00
 -0.4687   0.1858    0.1329967309126142E-01    0.0000000000000000E+00    0.0000000000000000E+00    0.2359332358357507E+00   -0.9410268002286610E+01    0.0000000000000000E+00    0.0000000000000000E+00    0.0000000000000000E+00    0.0000000000000000E+00    0.0000000000000000E+00
 -0.4844   0.1576    0.1756219279503389E-01    0.0000000000000000E+00    0.0000000000000000E+00    0.2455792948625244E+00   -0.9979844937660934E+01    0.0000000000000000E+00    0.0000000000000000E+00    0.0000000000000000E+00    0.0000000000000000E+00    0.0000000000000000E+00
 -0.4999   0.1298    0.2338909444194895E-01    0.0000000000000000E+00    0.0000000000000000E+00    0.2561460882428141E+00   -0.1036422491335836E+02    0.0000000000000000E+00    0.0000000000000000E+00    0.0000000000000000E+00    0.0000000000000000E+00    0.0000000000000000E+00
 -0.5151   0.1024    0.3047096165872172E-01    0.0000000000000000E+00    0.0000000000000000E+00    0.2676394276230508E+00   -0.1052335448643103E+02    0.0000000000000000E+00    0.0000000000000000E+00    0.0000000000000000E+00    0.0000000000000000E+00    0.0000000000000000E+00
 -0.5300   0.0756    0.3834114678974235E-01    0.0000000000000000E+00    0.0000000000000000E+00    0.2800459771731002E+00   -0.1042305958891255E+02    0.0000000000000000E+00    0.0000000000000000E+00    0.0000000000000000E+00    0.0000000000000000E+00    0.0000000000000000E+00
 -0.5445   0.0496    0.4639302065564140E-01    0.0000000000000000E+00    0.0000000000000000E+00    0.2933297845794972E+00   -0.1004225811698465E+02    0.0000000000000000E+00    0.0000000000000000E+00    0.0000000000000000E+00    0.0000000000000000E+00    0.0000000000000000E+00
 -0.5585   0.0244    0.5393175636188110E-01    0.0000000000000000E+00    0.0000000000000000E+00    0.3074297202693049E+00   -0.9381253554682726E+01    0.0000000000000000E+00    0.0000000000000000E+00    0.0000000000000000E+00    0.0000000000000000E+00    0.0000000000000000E+00
 -0.5720   0.0001    0.6026278426369545E-01    0.0000000000000000E+00    0.0000000000000000E+00    0.3222584178825647E+00   -0.8468304606518807E+01    0.0000000000000000E+00    0.0000000000000000E+00    0.0000000000000000E+00    0.0000000000000000E+00    0.0000000000000000E+00
 -0.5849  -0.0232    0.6480263702620406E-01    0.0000000000000000E+00    0.0000000000000000E+00    0.3377027907016699E+00   -0.7361028761338170E+01    0.0000000000000000E+00    0.0000000000000000E+00    0.0000000000000000E+00    0.0000000000000000E+00    0.0000000000000000E+00
 -0.5972  -0.0453    0.6718198848597974E-01    0.0000000000000000E+00    0.0000000000000000E+00    0.3536253861867845E+00   -0.6140428609122300E+01    0.0000000000000000E+00    0.0000000000000000E+00    0.0000000000000000E+00    0.0000000000000000E+00    0.0000000000000000E+00
 -0.6088  -0.0662    0.6730607846654788E-01    0.0000000000000000E+00    0.0000000000000000E+00    0.3698650418942343E+00   -0.4898092042900007E+01    0.0000000000000000E+00    0.0000000000000000E+00    0.0000000000000000E+00    0.0000000000000000E+00    0.0000000000000000E+00
 -0.6197  -0.0857    0.6535119357449221E-01    0.0000000000000000E+00    0.0000000000000000E+00    0.3862351431524567E+00   -0.3720385441928443E+01    0.0000000000000000E+00    0.0000000000000000E+00    0.0000000000000000E+00    0.0000000000000000E+00    0.0000000000000000E+00
 -0.6297  -0.1038    0.6170176561521869E-01    0.0000000000000000E+00    0.0000000000000000E+00    0.4025189155990829E+00   -0.2674851239793818E+01    0.0000000000000000E+00    0.0000000000000000E+00    0.0000000000000000E+00    0.0000000000000000E+00    0.0000000000000000E+00
 -0.6390  -0.1205    0.5685540932164179E-01    0.0000000000000000E+00    0.0000000000000000E+00    0.4184637362592181E+00   -0.1802975775318536E+01    0.0000000000000000E+00    0.0000000000000000E+00    0.0000000000000000E+00    0.0000000000000000E+00    0.0000000000000000E+00
 -0.6474  -0.1356    0.5133052078828333E-01    0.0000000000000000E+00    0.0000000000000000E+00    0.4337793511380592E+00   -0.1120253229074738E+01    0.0000000000000000E+00    0.0000000000000000E+00    0.0000000000000000E+00    0.0000000000000000E+00    0.0000000000000000E+00
 -0.6549  -0.1491    0.4560094413836590E-01    0.0000000000000000E+00    0.0000000000000000E+00    0.4481459315403789E+00   -0.6216222431330684E+00    0.0000000000000000E+00    0.0000000000000000E+00    0.0000000000000000E+00    0.0000000000000000E+00    0.0000000000000000E+00
 -0.6614  -0.1609    0.4006507095881028E-01    0.0000000000000000E+00    0.0000000000000000E+00    0.4612350633024921E+00   -0.2884813980255925E+00    0.0000000000000000E+00    0.0000000000000000E+00    0.0000000000000000E+00    0.0000000000000000E+00    0.0000000000000000E+00
 -0.6670  -0.1710    0.3504064632172725E-01    0.0000000000000000E+00    0.0000000000000000E+00    0.4727403446008422E+00   -0.9418201348182460E-01    0.0000000000000000E+00    0.0000000000000000E+00    0.0000000000000000E+00    0.0000000000000000E+00    0.0000000000000000E+00
 -0.6717  -0.1793    0.3076942361997286E-01    0.0000000000000000E+00    0.0000000000000000E+00    0.4824077646868729E+00   -0.6099536808132364E-02    0.0000000000000000E+00    0.0000000000000000E+00    0.0000000000000000E+00    0.0000000000000000E+00    0.0000000000000000E+00
 -0.6753  -0.1858    0.2741543603831807E-01    0.0000000000000000E+00    0.0000000000000000E+00    0.4900541979848459E+00    0.1367761389231721E-01    0.0000000000000000E+00    0.0000000000000000E+00    0.0000000000000000E+00    0.0000000000000000E+00    0.0000000000000000E+00
 -0.6778  -0.1904    0.2505357291812579E-01    0.0000000000000000E+00    0.0000000000000000E+00    0.4955674238459796E+00    0.5696954753685168E-02    0.0000000000000000E+00    0.0000000000000000E+00    0.0000000000000000E+00    0.0000000000000000E+00    0.0000000000000000E+00
 -0.6794  -0.1932    0.2366026489631770E-01    0.0000000000000000E+00    0.0000000000000000E+00    0.4988904164876465E+00   -0.4080925100135281E-04    0.0000000000000000E+00    0.0000000000000000E+00    0.0000000000000000E+00    0.0000000000000000E+00    0.0000000000000000E+00
 -0.6799  -0.1942    0.2319658671963477E-01    0.0000000000000000E+00    0.0000000000000000E+00    0.5000000000000000E+00    0.0000000000000000E+00    0.0000000000000000E+00    0.0000000000000000E+00    0.0000000000000000E+00    0.0000000000000000E+00    0.0000000000000000E+00
 -0.1932   0.6794    0.2453950105759061E-01    0.0000000000000000E+00    0.0000000000000000E+00   -0.5000000000000000E+00    0.5147246784181042E-03    0.0000000000000000E+00    0.0000000000000000E+00    0.0000000000000000E+00    0.0000000000000000E+00    0.0000000000000000E+00
 -0.1937   0.6785    0.2500372472834600E-01   -0.3178671396491384E-07    0.3211760231446767E-07   -0.4949176114404693E+00   -0.7109937610246475E-03    0.3917651490292542E-10   -0.1293368538462202E-08   -0.4736354537737686E-12   -0.4746008273881497E-12    0.1217439907566509E-10
 -0.1953   0.6757    0.2634395002856570E-01    0.7219337462348355E-05   -0.2466763287982044E-05   -0.4796953995022894E+00   -0.9223828981876606E-02   -0.3478023296643366E-08   -0.1296779737411380E-08   -0.8999823455924094E-12   -0.6952823733419322E-12    0.4709759752336007E-10
 -0.1979   0.6710    0.2847742724416699E-01    0.5081553112556071E-04   -0.6176462153118263E-05   -0.4544279719885644E+00   -0.4828885898328080E-01   -0.2716243568506359E-07   -0.1300730767886393E-08   -0.7732898522905263E-12   -0.6803585472781037E-12    0.1058534856990256E-09
 -0.2015   0.6645    0.3136538873049500E-01    0.1554272749246387E-03   -0.8703818804753842E-05   -0.4193442542512927E+00   -0.1416317635753716E+00   -0.8389769781697939E-07   -0.1304546790037442E-08   -0.2836619827917275E-13   -0.7482001129766047E-12    0.1872336036212729E-09
 -0.2061   0.6562    0.3495401391458931E-01    0.3184274115399103E-03   -0.9517711365340247E-05   -0.3749302561531346E+00   -0.2885972249890816E+00   -0.1721577901815457E-06   -0.1307710596060163E-08    0.1459957155169889E-11   -0.7422812364765718E-12    0.2893531178549402E-09
 -0.2117   0.6461    0.3909968833246583E-01    0.5135486873862448E-03   -0.8538814031079003E-05   -0.3221087960791381E+00   -0.4662635303992178E+00   -0.2774454905391751E-06   -0.1309056616577431E-08    0.3544955995415933E-11   -0.7277858871113096E-12    0.4066384659551225E-09
 -0.2183   0.6343    0.4354074305281996E-01    0.7021727738344217E-03   -0.6395366673152491E-05   -0.2624297891791867E+00   -0.6396189870951432E+00   -0.3789588906129426E-06   -0.1307894818489141E-08    0.5891453991324624E-11   -0.7232166254755867E-12    0.5310750728071412E-09
 -0.2258   0.6209    0.4790178603371373E-01    0.8469277490048878E-03   -0.3696696774077491E-05   -0.1981749124105335E+00   -0.7743797995070797E+00   -0.4565209220362341E-06   -0.1303866620575023E-08    0.8078315794080027E-11   -0.7192614559503596E-12    0.6476734148996854E-09
 -0.2342   0.6058    0.5173550934076963E-01    0.9253985042718565E-03   -0.1266473365409710E-05   -0.1322726560671997E+00   -0.8496651219466752E+00   -0.4981554318131941E-06   -0.1297039526997057E-08    0.9688694291298816E-11   -0.6547679065604939E-12    0.7375179217339323E-09
 -0.2434   0.5891    0.5459397411554946E-01    0.9407133912511921E-03    0.2625469392511984E-06   -0.6798604598462200E-01   -0.8679208183247785E+00   -0.5056022315458613E-06   -0.1287614245586675E-08    0.1037771257816900E-10   -0.6331495115523278E-12    0.7789951739223255E-09
 -0.2535   0.5709    0.5611917432412317E-01    0.9238497487997411E-03    0.4681589569460613E-06   -0.8448393711624778E-02   -0.8571231812275452E+00   -0.4956378491900206E-06   -0.1275881263704606E-08    0.9938539574649852E-11   -0.5706136518152105E-12    0.7504668136926185E-09
 -0.2644   0.5514    0.5611980575999480E-01    0.9241254639552420E-03   -0.5697770399788763E-06    0.4380182629785703E-01   -0.8622491258524181E+00   -0.4948587315239146E-06   -0.1261903938114262E-08    0.8405764799490623E-11   -0.5285901924501069E-12    0.6318692513662683E-09
 -0.2760   0.5305    0.5459986412354330E-01    0.9914552589131154E-03   -0.2461261879660817E-05    0.8715572559843156E-01   -0.9290854413420736E+00   -0.5301457012991005E-06   -0.1244766937094632E-08    0.6030483404306786E-11   -0.4828429323033845E-12    0.4068768932885547E-09
 -0.2883   0.5084    0.5172397025170679E-01    0.1160911469504085E-02   -0.4668302107055559E-05    0.1210852912317788E+00   -0.1090059004518454E+01   -0.6203371816322418E-06   -0.1222441443210487E-08    0.3172573315168847E-11   -0.4311377643784198E-12    0.6676194319599205E-10
 -0.3012   0.4852    0.4774740471410056E-01    0.1448639800925356E-02   -0.6852852753706383E-05    0.1461125242662615E+00   -0.1360298169046272E+01   -0.7740646990288814E-06   -0.1191910327380530E-08    0.1159003448769624E-12   -0.3453001773401354E-12   -0.3833527592589370E-09
 -0.3147   0.4609    0.4295436730036214E-01    0.1857937691458408E-02   -0.8869157108737465E-05    0.1636070303760201E+00   -0.1743026608751465E+01   -0.9930727722904165E-06   -0.1150139556510554E-08   -0.3013846117116969E-11   -0.2564129464310838E-12   -0.9189781192964208E-09
 -0.3287   0.4357    0.3762944898095578E-01    0.2386897186900658E-02   -0.1072564796196464E-04    0.1754378004553062E+00   -0.2236483720094541E+01   -0.1276328257377300E-05   -0.1095192676131562E-08   -0.6212447223319373E-11   -0.1501299085049368E-12   -0.1496007692725065E-08
 -0.3432   0.4096    0.3205517852753616E-01    0.3031266825623644E-02   -0.1240424592452907E-04    0.1835584965013665E+00   -0.2836572534927209E+01   -0.1621588970385518E-05   -0.1026955253474737E-08   -0.9490110086662895E-11   -0.5637851296924623E-13   -0.2060565751013654E-08
 -0.3580   0.3828    0.2651947719654713E-01    0.3782923988468583E-02   -0.1386283952037070E-04    0.1896540208052572E+00   -0.3535506621958318E+01   -0.2024533547077583E-05   -0.9471953534012645E-09   -0.1285592118871470E-10    0.5839773109528323E-13   -0.2563344364027442E-08
 -0.3732   0.3555    0.2132108946373901E-01    0.4627330185236254E-02   -0.1500240377017022E-04    0.1949545634737593E+00   -0.4319514946816762E+01   -0.2477429001320298E-05   -0.8593262733336271E-09   -0.1631741963770139E-10    0.1390276782586852E-12   -0.2971105638317588E-08
 -0.3887   0.3276    0.1676824897255406E-01    0.5542326776994479E-02   -0.1573854365938484E-04    0.2002337178337353E+00   -0.5167783387403309E+01   -0.2968422407577454E-05   -0.7677391535010347E-09   -0.1990787396044524E-10    0.2468858451010192E-12   -0.3271971525317663E-08
 -0.4044   0.2994    0.1316786417396025E-01    0.6498708162519155E-02   -0.1598712986444196E-04    0.2059212489605029E+00   -0.6053021400770053E+01   -0.3481898249719849E-05   -0.6771920246784191E-09   -0.2366046247814779E-10    0.3455569164145800E-12   -0.3470187182313261E-08
 -0.4202   0.2709    0.1080672728002942E-01    0.7462004346709425E-02   -0.1570525581919754E-04    0.2122390909830923E+00   -0.6943151062925244E+01   -0.3999365955752799E-05   -0.5924227670928151E-09   -0.2759104056337947E-10    0.4177214130152151E-12   -0.3579405665095348E-08
 -0.4361   0.2424    0.9928125462656727E-02    0.8394470948926917E-02   -0.1485250076252755E-04    0.2193040778864052E+00   -0.7803151904364793E+01   -0.4500595122859304E-05   -0.5177590509108931E-09   -0.3159075778746967E-10    0.4657246810424454E-12   -0.3616002078495051E-08
 -0.4520   0.2138    0.1070810893270352E-01    0.9256474270926410E-02   -0.1340262480950222E-04    0.2271858954560400E+00   -0.8596361476624294E+01   -0.4964282609142038E-05   -0.4568489371525875E-09   -0.3542435789150034E-10    0.4868744296615546E-12   -0.3594711134660700E-08
 -0.4678   0.1853    0.1323274618183582E-01    0.1000696086118233E-01   -0.1130295308111231E-04    0.2359325581778226E+00   -0.9284902093232327E+01   -0.5368385006469582E-05   -0.4122021821095778E-09   -0.3866867936963558E-10    0.4562530908636120E-12   -0.3527652660435809E-08
 -0.4835   0.1571    0.1747631321463090E-01    0.1060346948037725E-01   -0.8495528502933283E-05    0.2455785386942216E+00   -0.9829729880863436E+01   -0.5690032759430308E-05   -0.3847959624547759E-09   -0.4079592219596861E-10    0.4103731243709774E-12   -0.3424903493622067E-08
 -0.4990   0.1292    0.2327996279337110E-01    0.1100267561303444E-01   -0.4911927356795638E-05    0.2561452492525983E+00   -0.1019114696218805E+02   -0.5905912970999677E-05   -0.3733621536938792E-09   -0.4118616558912436E-10    0.2918394692574822E-12   -0.3293679745608458E-08
 -0.5142   0.1019    0.3033416151431082E-01    0.1116270862706728E-01   -0.5313784364204587E-06    0.2676385034191786E+00   -0.1033099098421291E+02   -0.5993405516844685E-05   -0.3741933489410584E-09   -0.3932748571244815E-10    0.1641328132434561E-12   -0.3140152483524505E-08
 -0.5291   0.0751    0.3817259377260363E-01    0.1104810689613952E-01    0.4584390780028784E-05    0.2800449678034136E+00   -0.1021717873988178E+02   -0.5933359593973641E-05   -0.3812270915615201E-09   -0.3488431765674704E-10   -0.1741662369880714E-14   -0.2968379970644253E-08
 -0.5435   0.0491    0.4618970031764900E-01    0.1063737938368496E-01    0.1022131591647028E-04    0.2933286924575343E+00   -0.9830652961579064E+01   -0.5714045968870303E-05   -0.3867834212634147E-09   -0.2790889741532965E-10   -0.1501992974439759E-12   -0.2783261041777729E-08
 -0.5576   0.0238    0.5369256090411273E-01    0.9931640093531084E-02    0.1600183383676978E-04    0.3074285493060412E+00   -0.9173182578946474E+01   -0.5335957703291632E-05   -0.3832649024537726E-09   -0.1894839840588247E-10   -0.3163302952913227E-12   -0.2586306184840237E-08
 -0.5710  -0.0004    0.5998925524499463E-01    0.8961363964355129E-02    0.2139709834782896E-04    0.3222571718273140E+00   -0.8273455841685704E+01   -0.4815326687470885E-05   -0.3648908258879757E-09   -0.9015732604922277E-11   -0.4379829832146243E-12   -0.2380834092374773E-08
 -0.5840  -0.0237    0.6449921623298595E-01    0.7787707146067560E-02    0.2583058026926541E-04    0.3377014711784494E+00   -0.7188095330512597E+01   -0.4185027530134583E-05   -0.3295009681769656E-09    0.6271649866107509E-12   -0.5356548538060224E-12   -0.2168538536240217E-08
 -0.5963  -0.0458    0.6685564989407589E-01    0.6496125352712130E-02    0.2880247083956503E-04    0.3536239915377484E+00   -0.5995763171297828E+01   -0.3490975684201801E-05   -0.2791372272215042E-09    0.8715694832517329E-11   -0.5676015213396113E-12   -0.1951888470297369E-08
 -0.6079  -0.0667    0.6696526684383976E-01    0.5182933015385366E-02    0.3002898857870806E-04    0.3698635683820024E+00   -0.4784787996237474E+01   -0.2785091972584957E-05   -0.2193826162399937E-09    0.1433769769576543E-10   -0.6012690345613692E-12   -0.1732427512210477E-08
 -0.6187  -0.0862    0.6500450633193300E-01    0.3938787823538412E-02    0.2950036942909565E-04    0.3862335898322188E+00   -0.3638190368976002E+01   -0.2116157501863620E-05   -0.1575047731128265E-09    0.1712030517353469E-10   -0.5581646256302975E-12   -0.1512987148760692E-08
 -0.6288  -0.1044    0.6135669203011861E-01    0.2834533660262997E-02    0.2746073072007094E-04    0.4025172928305996E+00   -0.2620752342667366E+01   -0.1522429080412624E-05   -0.1003033073265769E-09    0.1727165632736671E-10   -0.5592193375036913E-12   -0.1295976293294587E-08
 -0.6381  -0.1210    0.5651767114281586E-01    0.1913681254917828E-02    0.2430031352931188E-04    0.4184620754672996E+00   -0.1772304106580991E+01   -0.1027268919194636E-05   -0.5255591101205326E-10    0.1541720917597189E-10   -0.4857919622125451E-12   -0.1084040687077126E-08
 -0.6465  -0.1361    0.5100394341072255E-01    0.1192494913421458E-02    0.2042807830907764E-04    0.4337777110303485E+00   -0.1107699767004643E+01   -0.6395447885618088E-06   -0.1641572294763805E-10    0.1238269903280909E-10   -0.4538591724667640E-12   -0.8815397370409706E-09
 -0.6539  -0.1496    0.4528794322381851E-01    0.6656257207851025E-03    0.1617181252518782E-04    0.4481443953424597E+00   -0.6220563207870061E+00   -0.3562562936803550E-06    0.8222152125814119E-11    0.8964131195145220E-11   -0.4398703623564870E-12   -0.6908484305456764E-09
 -0.6605  -0.1614    0.3976709610128937E-01    0.3133958284048966E-03    0.1174829129067690E-04    0.4612337241182368E+00   -0.2971536111032894E+00   -0.1669819030635083E-06    0.2309299626523931E-10    0.5807621744624569E-11   -0.4557465516086268E-12   -0.5173826818360983E-09
 -0.6661  -0.1715    0.3475845455727665E-01    0.1074351274628471E-03    0.7339150714740322E-05    0.4727392814921651E+00   -0.1067216775156215E+00   -0.5631639923566767E-07    0.3069172173353341E-10    0.3338305326616720E-11   -0.4909614381709559E-12   -0.3641749306629305E-09
 -0.6707  -0.1798    0.3050229028297004E-01    0.1291547464969411E-04    0.3256311109404446E-05    0.4824070179665887E+00   -0.1818772473177432E-01   -0.5844444747241720E-08    0.3390974653849632E-10    0.1749184130872550E-11   -0.5084214299566625E-12   -0.2353195858659229E-09
 -0.6743  -0.1863    0.2715958650634523E-01   -0.1058939865108679E-04    0.1102348172095373E-06    0.4900537549468880E+00    0.5874364763227888E-02    0.6448318229496362E-08    0.3529898199910661E-10    0.9914395693311207E-12   -0.5362320830426537E-12   -0.1330309252513262E-09
 -0.6769  -0.1909    0.2479989849109331E-01   -0.5171054386523328E-05   -0.1214027813468894E-05    0.4955672226082358E+00    0.4017539503234421E-02    0.2848305384933051E-08    0.3720656118269550E-10    0.7546012426029591E-12   -0.6057277075754985E-12   -0.5939139804955751E-10
 -0.6785  -0.1937    0.2340421547956586E-01   -0.2245683131702193E-06   -0.2244847143804527E-06    0.4988903659232540E+00    0.7446244370362101E-03    0.1912264017269018E-09    0.3985535707885790E-10    0.4161557708680375E-12   -0.4263087279021693E-12   -0.1496251175259547E-10
 -0.6790  -0.1947    0.2294024895636264E-01    0.0000000000000000E+00    0.0000000000000000E+00    0.5000000000000000E+00   -0.4060582494579601E-04    0.0000000000000000E+00    0.0000000000000000E+00    0.0000000000000000E+00    0.0000000000000000E+00    0.0000000000000000E+00
 -0.1904   0.6778    0.2534680464589470E-01    0.0000000000000000E+00    0.0000000000000000E+00   -0.5000000000000000E+00   -0.4807775635950431E-02    0.0000000000000000E+00    0.0000000000000000E+00    0.0000000000000000E+00    0.0000000000000000E+00    0.0000000000000000E+00
 -0.1909   0.6769    0.2580055517239458E-01    0.2465074434243601E-05   -0.7216099146952128E-05   -0.4949152510339435E+00   -0.9222767845336549E-02   -0.3475834192623648E-08   -0.1296271381900915E-08   -0.6937791134772539E-12   -0.8665776429772620E-12    0.1182415341853538E-10
 -0.1925   0.6741    0.2712888554996422E-01    0.4017725189686121E-04   -0.4018057847546252E-04   -0.4796858414451374E+00   -0.2177491011802121E-01   -0.7740812088940539E-07   -0.1297719313952950E-08   -0.1939762803507272E-11   -0.2210981397965384E-11    0.4710620522124787E-10
 -0.1951   0.6695    0.2925935292443422E-01    0.2012345278699918E-03   -0.9052134615135185E-04   -0.4544056748634835E+00   -0.5258669486138835E-01   -0.4338555461183128E-06   -0.1300595256492620E-08   -0.1956608486342049E-11   -0.3050646540936341E-11    0.1057435354556713E-09
 -0.1987   0.6630    0.3212764719390541E-01    0.5738425353706205E-03   -0.1296298655890049E-03   -0.4193023599339895E+00   -0.1229988178443519E+00   -0.1271852979877341E-05   -0.1304009969449460E-08    0.4928037145024433E-12   -0.3652991104052816E-11    0.1870907283263445E-09
 -0.2033   0.6547    0.3566184502593949E-01    0.1165273780587961E-02   -0.1433232251839290E-03   -0.3748610610099832E+00   -0.2408187718774009E+00   -0.2592233576760755E-05   -0.1306956959323813E-08    0.5739624053813230E-11   -0.4007801035488257E-11    0.2887741781809616E-09
 -0.2089   0.6446    0.3971748074100721E-01    0.1890196181072972E-02   -0.1310814242476517E-03   -0.3220056434273016E+00   -0.3922409386463640E+00   -0.4193829823463541E-05   -0.1308408270617178E-08    0.1330294902013307E-10   -0.4098277273101303E-11    0.4065567951738736E-09
 -0.2155   0.6328    0.4404010638794310E-01    0.2609028885169604E-02   -0.9985991378685060E-04   -0.2622897422711216E+00   -0.5489674800516463E+00   -0.5764119787048684E-05   -0.1307555425045237E-08    0.2192872272654967E-10   -0.3931657083233731E-11    0.5308002509751830E-09
 -0.2230   0.6193    0.4826714266322437E-01    0.3180787391402041E-02   -0.5990116306545658E-04   -0.1980009474349358E+00   -0.6805293361379791E+00   -0.6993474373465180E-05   -0.1304017092224052E-08    0.3002044446365204E-10   -0.3579900265116009E-11    0.6471945340758012E-09