 title="result"
 variables="x","y","P","u","v","t","omega","psi","RES1","RES2","RES3","RES4"
zone,j= 49,i= 49,f=point
 -0.4619   0.5354    0.2386516991294004E-01    0.0000000000000000E+00    0.0000000000000000E+00   -0.5000000000000000E+00    0.0000000000000000E+00    0.0000000000000000E+00    0.0000000000000000E+00    0.0000000000000000E+00    0.0000000000000000E+00    0.0000000000000000E+00
 -0.4619   0.5344    0.2439457677809500E-01    0.0000000000000000E+00    0.0000000000000000E+00   -0.4961339823212039E+00   -0.2810280882721078E-03    0.0000000000000000E+00    0.0000000000000000E+00    0.0000000000000000E+00    0.0000000000000000E+00    0.0000000000000000E+00
 -0.4622   0.5312    0.2597137800737099E-01    0.0000000000000000E+00    0.0000000000000000E+00   -0.4845540472277801E+00   -0.4412354428631634E-02    0.0000000000000000E+00    0.0000000000000000E+00    0.0000000000000000E+00    0.0000000000000000E+00    0.0000000000000000E+00
 -0.4626   0.5258    0.2855315848725271E-01    0.0000000000000000E+00    0.0000000000000000E+00   -0.4653236576749640E+00   -0.5417683633227495E-02    0.0000000000000000E+00    0.0000000000000000E+00    0.0000000000000000E+00    0.0000000000000000E+00    0.0000000000000000E+00
 -0.4631   0.5184    0.3200981914148882E-01    0.0000000000000000E+00    0.0000000000000000E+00   -0.4385768514874976E+00    0.1516656395319361E-01    0.0000000000000000E+00    0.0000000000000000E+00    0.0000000000000000E+00    0.0000000000000000E+00    0.0000000000000000E+00
 -0.4638   0.5090    0.3609792831082008E-01    0.0000000000000000E+00    0.0000000000000000E+00   -0.4045519475759408E+00    0.7045779984352872E-01    0.0000000000000000E+00    0.0000000000000000E+00    0.0000000000000000E+00    0.0000000000000000E+00    0.0000000000000000E+00
 -0.4647   0.4975    0.4049783675302576E-01    0.0000000000000000E+00    0.0000000000000000E+00   -0.3636247725236125E+00    0.1601593810934285E+00    0.0000000000000000E+00    0.0000000000000000E+00    0.0000000000000000E+00    0.0000000000000000E+00    0.0000000000000000E+00
 -0.4657   0.4840    0.4485071148602516E-01    0.0000000000000000E+00    0.0000000000000000E+00   -0.3163431687043817E+00    0.2701012566243331E+00    0.0000000000000000E+00    0.0000000000000000E+00    0.0000000000000000E+00    0.0000000000000000E+00    0.0000000000000000E+00
 -0.4668   0.4686    0.4879622048292385E-01    0.0000000000000000E+00    0.0000000000000000E+00   -0.2634802785295439E+00    0.3753094350566179E+00    0.0000000000000000E+00    0.0000000000000000E+00    0.0000000000000000E+00    0.0000000000000000E+00    0.0000000000000000E+00
 -0.4681   0.4514    0.5200396129783539E-01    0.0000000000000000E+00    0.0000000000000000E+00   -0.2061281980443785E+00    0.4455008340315657E+00    0.0000000000000000E+00    0.0000000000000000E+00    0.0000000000000000E+00    0.0000000000000000E+00    0.0000000000000000E+00
 -0.4695   0.4324    0.5419894788024166E-01    0.0000000000000000E+00    0.0000000000000000E+00   -0.1458328431444042E+00    0.4516632598816488E+00    0.0000000000000000E+00    0.0000000000000000E+00    0.0000000000000000E+00    0.0000000000000000E+00    0.0000000000000000E+00
 -0.4710   0.4117    0.5517723979076623E-01    0.0000000000000000E+00    0.0000000000000000E+00   -0.8472250131810125E-01    0.3722786871190636E+00    0.0000000000000000E+00    0.0000000000000000E+00    0.0000000000000000E+00    0.0000000000000000E+00    0.0000000000000000E+00
 -0.4726   0.3894    0.5481458039778783E-01    0.0000000000000000E+00    0.0000000000000000E+00   -0.2552035782101323E-01    0.1967336574592166E+00    0.0000000000000000E+00    0.0000000000000000E+00    0.0000000000000000E+00    0.0000000000000000E+00    0.0000000000000000E+00
 -0.4744   0.3656    0.5307237509763277E-01    0.0000000000000000E+00    0.0000000000000000E+00    0.2870072723087141E-01   -0.7574718953434600E-01    0.0000000000000000E+00    0.0000000000000000E+00    0.0000000000000000E+00    0.0000000000000000E+00    0.0000000000000000E+00
 -0.4763   0.3403    0.5000559577650109E-01    0.0000000000000000E+00    0.0000000000000000E+00    0.7509186889625086E-01   -0.4411261950418088E+00    0.0000000000000000E+00    0.0000000000000000E+00    0.0000000000000000E+00    0.0000000000000000E+00    0.0000000000000000E+00
 -0.4782   0.3138    0.4576744090216311E-01    0.0000000000000000E+00    0.0000000000000000E+00    0.1117923132436105E+00   -0.8962791462732327E+00    0.0000000000000000E+00    0.0000000000000000E+00    0.0000000000000000E+00    0.0000000000000000E+00    0.0000000000000000E+00
 -0.4803   0.2861    0.4060145081202737E-01    0.0000000000000000E+00    0.0000000000000000E+00    0.1385155991535132E+00   -0.1441940628995267E+01    0.0000000000000000E+00    0.0000000000000000E+00    0.0000000000000000E+00    0.0000000000000000E+00    0.0000000000000000E+00
 -0.4824   0.2573    0.3481811981887820E-01    0.0000000000000000E+00    0.0000000000000000E+00    0.1565800520770632E+00   -0.2081515643676028E+01    0.0000000000000000E+00    0.0000000000000000E+00    0.0000000000000000E+00    0.0000000000000000E+00    0.0000000000000000E+00
 -0.4846   0.2276    0.2876718289562035E-01    0.0000000000000000E+00    0.0000000000000000E+00    0.1683253830555553E+00   -0.2816862328430975E+01    0.0000000000000000E+00    0.0000000000000000E+00    0.0000000000000000E+00    0.0000000000000000E+00    0.0000000000000000E+00
 -0.4868   0.1971    0.2281781727514533E-01    0.0000000000000000E+00    0.0000000000000000E+00    0.1762626018629830E+00   -0.3643047274026106E+01    0.0000000000000000E+00    0.0000000000000000E+00    0.0000000000000000E+00    0.0000000000000000E+00    0.0000000000000000E+00
 -0.4891   0.1658    0.1734766775307087E-01    0.0000000000000000E+00    0.0000000000000000E+00    0.1824228760772774E+00   -0.4544212808341488E+01    0.0000000000000000E+00    0.0000000000000000E+00    0.0000000000000000E+00    0.0000000000000000E+00    0.0000000000000000E+00
 -0.4915   0.1341    0.1273050185186399E-01    0.0000000000000000E+00    0.0000000000000000E+00    0.1881314646901219E+00   -0.5492139268363490E+01    0.0000000000000000E+00    0.0000000000000000E+00    0.0000000000000000E+00    0.0000000000000000E+00    0.0000000000000000E+00
 -0.4938   0.1019    0.9313990597959275E-02    0.0000000000000000E+00    0.0000000000000000E+00    0.1941161166776108E+00   -0.6447860244336507E+01    0.0000000000000000E+00    0.0000000000000000E+00    0.0000000000000000E+00    0.0000000000000000E+00    0.0000000000000000E+00
 -0.4962   0.0694    0.7387086057962731E-02    0.0000000000000000E+00    0.0000000000000000E+00    0.2007312874938019E+00   -0.7365280365453662E+01    0.0000000000000000E+00    0.0000000000000000E+00    0.0000000000000000E+00    0.0000000000000000E+00    0.0000000000000000E+00
 -0.4986   0.0368    0.7143518177712945E-02    0.0000000000000000E+00    0.0000000000000000E+00    0.2081444347021438E+00   -0.8195282164955865E+01    0.0000000000000000E+00    0.0000000000000000E+00    0.0000000000000000E+00    0.0000000000000000E+00    0.0000000000000000E+00
 -0.5011   0.0042    0.8648698672224965E-02    0.0000000000000000E+00    0.0000000000000000E+00    0.2164424345077977E+00   -0.8889237759003214E+01    0.0000000000000000E+00    0.0000000000000000E+00    0.0000000000000000E+00    0.0000000000000000E+00    0.0000000000000000E+00
 -0.5034  -0.0283    0.1181531339707587E-01    0.0000000000000000E+00    0.0000000000000000E+00    0.2256777446477919E+00   -0.9401785345956320E+01    0.0000000000000000E+00    0.0000000000000000E+00    0.0000000000000000E+00    0.0000000000000000E+00    0.0000000000000000E+00
 -0.5058  -0.0605    0.1639065871215513E-01    0.0000000000000000E+00    0.0000000000000000E+00    0.2358833312669885E+00   -0.9693443275598074E+01    0.0000000000000000E+00    0.0000000000000000E+00    0.0000000000000000E+00    0.0000000000000000E+00    0.0000000000000000E+00
 -0.5082  -0.0923    0.2195936024734402E-01    0.0000000000000000E+00    0.0000000000000000E+00    0.2470748767652250E+00   -0.9733884690565253E+01    0.0000000000000000E+00    0.0000000000000000E+00    0.0000000000000000E+00    0.0000000000000000E+00    0.0000000000000000E+00
 -0.5105  -0.1235    0.2796642895180677E-01    0.0000000000000000E+00    0.0000000000000000E+00    0.2592487927334573E+00   -0.9506249694250673E+01    0.0000000000000000E+00    0.0000000000000000E+00    0.0000000000000000E+00    0.0000000000000000E+00    0.0000000000000000E+00
 -0.5127  -0.1540    0.3376569658415558E-01    0.0000000000000000E+00    0.0000000000000000E+00    0.2723794601672122E+00   -0.9012013906328402E+01    0.0000000000000000E+00    0.0000000000000000E+00    0.0000000000000000E+00    0.0000000000000000E+00    0.0000000000000000E+00
 -0.5149  -0.1838    0.3869398719832060E-01    0.0000000000000000E+00    0.0000000000000000E+00    0.2864171491357402E+00   -0.8274906325408626E+01    0.0000000000000000E+00    0.0000000000000000E+00    0.0000000000000000E+00    0.0000000000000000E+00    0.0000000000000000E+00
 -0.5170  -0.2125    0.4216233673173375E-01    0.0000000000000000E+00    0.0000000000000000E+00    0.3012872447943997E+00   -0.7341836675439682E+01    0.0000000000000000E+00    0.0000000000000000E+00    0.0000000000000000E+00    0.0000000000000000E+00    0.0000000000000000E+00
 -0.5191  -0.2403    0.4374499277755389E-01    0.0000000000000000E+00    0.0000000000000000E+00    0.3168907382941588E+00   -0.6279153680206251E+01    0.0000000000000000E+00    0.0000000000000000E+00    0.0000000000000000E+00    0.0000000000000000E+00    0.0000000000000000E+00
 -0.5210  -0.2668    0.4324184737649021E-01    0.0000000000000000E+00    0.0000000000000000E+00    0.3331051927608987E+00   -0.5164068689595975E+01    0.0000000000000000E+00    0.0000000000000000E+00    0.0000000000000000E+00    0.0000000000000000E+00    0.0000000000000000E+00
 -0.5229  -0.2920    0.4069522907439444E-01    0.0000000000000000E+00    0.0000000000000000E+00    0.3497847820325550E+00   -0.4073077143086861E+01    0.0000000000000000E+00    0.0000000000000000E+00    0.0000000000000000E+00    0.0000000000000000E+00    0.0000000000000000E+00
 -0.5247  -0.3158    0.3635741441115130E-01    0.0000000000000000E+00    0.0000000000000000E+00    0.3667580012799406E+00   -0.3070698656308025E+01    0.0000000000000000E+00    0.0000000000000000E+00    0.0000000000000000E+00    0.0000000000000000E+00    0.0000000000000000E+00
 -0.5263  -0.3381    0.3062281029686355E-01    0.0000000000000000E+00    0.0000000000000000E+00    0.3838227102445168E+00   -0.2201796791031432E+01    0.0000000000000000E+00    0.0000000000000000E+00    0.0000000000000000E+00    0.0000000000000000E+00    0.0000000000000000E+00
 -0.5278  -0.3588    0.2394909000689640E-01    0.0000000000000000E+00    0.0000000000000000E+00    0.4007402737659974E+00   -0.1489209781092885E+01    0.0000000000000000E+00    0.0000000000000000E+00    0.0000000000000000E+00    0.0000000000000000E+00    0.0000000000000000E+00
 -0.5292  -0.3778    0.1679005775925600E-01    0.0000000000000000E+00    0.0000000000000000E+00    0.4172328384591268E+00   -0.9362723642960112E+00    0.0000000000000000E+00    0.0000000000000000E+00    0.0000000000000000E+00    0.0000000000000000E+00    0.0000000000000000E+00
 -0.5305  -0.3951    0.9552717760272068E-02    0.0000000000000000E+00    0.0000000000000000E+00    0.4329886430758943E+00   -0.5322400108692754E+00    0.0000000000000000E+00    0.0000000000000000E+00    0.0000000000000000E+00    0.0000000000000000E+00    0.0000000000000000E+00
 -0.5316  -0.4104    0.2579329395578018E-02    0.0000000000000000E+00    0.0000000000000000E+00    0.4476783396618131E+00   -0.2581799780337182E+00    0.0000000000000000E+00    0.0000000000000000E+00    0.0000000000000000E+00    0.0000000000000000E+00    0.0000000000000000E+00
 -0.5326  -0.4239   -0.3853193267103316E-02    0.0000000000000000E+00    0.0000000000000000E+00    0.4609807588307211E+00   -0.9139181259787721E-01    0.0000000000000000E+00    0.0000000000000000E+00    0.0000000000000000E+00    0.0000000000000000E+00    0.0000000000000000E+00
 -0.5335  -0.4354   -0.9526644550139133E-02    0.0000000000000000E+00    0.0000000000000000E+00    0.4726115177875140E+00   -0.7575559582465852E-02    0.0000000000000000E+00    0.0000000000000000E+00    0.0000000000000000E+00    0.0000000000000000E+00    0.0000000000000000E+00
 -0.5342  -0.4449   -0.1427739332533904E-01    0.0000000000000000E+00    0.0000000000000000E+00    0.4823453673284842E+00    0.1890360396469270E-01    0.0000000000000000E+00    0.0000000000000000E+00    0.0000000000000000E+00    0.0000000000000000E+00    0.0000000000000000E+00
 -0.5347  -0.4523   -0.1799837213156838E-01    0.0000000000000000E+00    0.0000000000000000E+00    0.4900251004985683E+00    0.1450526230649770E-01    0.0000000000000000E+00    0.0000000000000000E+00    0.0000000000000000E+00    0.0000000000000000E+00    0.0000000000000000E+00
 -0.5351  -0.4576   -0.2064493925594437E-01    0.0000000000000000E+00    0.0000000000000000E+00    0.4955555401327582E+00    0.3656162709469952E-02    0.0000000000000000E+00    0.0000000000000000E+00    0.0000000000000000E+00    0.0000000000000000E+00    0.0000000000000000E+00
 -0.5353  -0.4608   -0.2222939505712674E-01    0.0000000000000000E+00    0.0000000000000000E+00    0.4988875057221795E+00   -0.1403579159690965E-03    0.0000000000000000E+00    0.0000000000000000E+00    0.0000000000000000E+00    0.0000000000000000E+00    0.0000000000000000E+00
 -0.5354  -0.4619   -0.2276065209034718E-01    0.0000000000000000E+00    0.0000000000000000E+00    0.5000000000000000E+00    0.0000000000000000E+00    0.0000000000000000E+00    0.0000000000000000E+00    0.0000000000000000E+00    0.0000000000000000E+00    0.0000000000000000E+00
 -0.4608   0.5353    0.2390689247073228E-01    0.0000000000000000E+00    0.0000000000000000E+00   -0.5000000000000000E+00   -0.2811234508547924E-03    0.0000000000000000E+00    0.0000000000000000E+00    0.0000000000000000E+00    0.0000000000000000E+00    0.0000000000000000E+00
 -0.4609   0.5343    0.2443614801334205E-01    0.3082968712014206E-06   -0.3083693842790000E-06   -0.4961339038382269E+00   -0.5399940704751225E-03   -0.2167421537054985E-09   -0.4352650531669333E-09   -0.4590766514763617E-12   -0.4406555415698010E-12    0.5411513576657201E-11
 -0.4611   0.5311    0.2601145181196483E-01    0.3478287998061161E-05   -0.6104734905816011E-06   -0.4845537351317659E+00   -0.2087955938662943E-02   -0.2036502757293170E-08   -0.4382543157587307E-09   -0.8269782428294015E-12   -0.6562532635367990E-12    0.2165437750986654E-10
 -0.4615   0.5258    0.2858647218816186E-01    0.3019633002514946E-05    0.6596940122485749E-06   -0.4653229718896393E+00   -0.1224210658829301E-03   -0.2128204512982289E-08   -0.4411054978312873E-09   -0.8739363399623556E-12   -0.6274533843886321E-12    0.4934463775085884E-10
 -0.4620   0.5184    0.3203227974778002E-01   -0.1902286294225718E-04    0.2441158133434315E-05   -0.4385756916827120E+00    0.2041221528074839E-01    0.9721789746942660E-08   -0.4433944131992940E-09   -0.7708625404667657E-12   -0.6179379924420303E-12    0.8897680769254235E-10
 -0.4627   0.5089    0.3611048889862008E-01   -0.7651578352277483E-04    0.3940988299325031E-05   -0.4045502563834222E+00    0.7251690816187947E-01    0.4075413683883737E-07   -0.4456283588666343E-09   -0.5742975539568818E-12   -0.6635317295611287E-12    0.1408898692156768E-09
 -0.4636   0.4974    0.4050373762302937E-01   -0.1696334934782168E-03    0.4625236658669563E-05   -0.3636225013638059E+00    0.1567348072663863E+00    0.9114104516103290E-07   -0.4479197360240939E-09   -0.2900076012668507E-12   -0.6419170750504577E-12    0.2081807452120055E-09
 -0.4646   0.4839    0.4485422034927133E-01   -0.2838249032981209E-03    0.4363495263314381E-05   -0.3163402234513930E+00    0.2601143309061384E+00    0.1528617347647406E-06   -0.4506820385635768E-09    0.5071637554365793E-13   -0.6105151106883255E-12    0.2948011071368661E-09
 -0.4657   0.4685    0.4880136462200127E-01   -0.3929744740017145E-03    0.3178451184487053E-05   -0.2634764766139833E+00    0.3587996438390230E+00    0.2119232135881203E-06   -0.4543788886812727E-09    0.4898165206768113E-12   -0.6521796991343365E-12    0.4060051218834904E-09
 -0.4670   0.4513    0.5201391602954607E-01   -0.4651725810986322E-03    0.1293275412554672E-05   -0.2061232688696757E+00    0.4234891457842341E+00    0.2510770528350557E-06   -0.4596518235477909E-09    0.1113227565685548E-11   -0.6238464606012073E-12    0.5469170741290164E-09
 -0.4684   0.4323    0.5421547680060619E-01   -0.4696921537365010E-03   -0.1004698556647251E-05   -0.1458264956032760E+00    0.4257664828951320E+00    0.2538797943866083E-06   -0.4671983787254280E-09    0.2038841317997253E-11   -0.6454723908144722E-12    0.7181749570039919E-09
 -0.4699   0.4116    0.5520068171442937E-01   -0.3835830733070434E-03   -0.3373045714334873E-05   -0.8471456635658214E-01    0.3442896300737274E+00    0.2079788073510111E-06   -0.4777288070342833E-09    0.3352831901004549E-11   -0.6707932820315676E-12    0.9107522999651785E-09
 -0.4716   0.3893    0.5484416471081644E-01   -0.1953435739618724E-03   -0.5560006723157945E-05   -0.2551097613019297E-01    0.1681676222648990E+00    0.1072860334708320E-06   -0.4917708271851007E-09    0.5071915110121950E-11   -0.6694263199324979E-12    0.1098431456902915E-08
 -0.4733   0.3655    0.5310700692553247E-01    0.9611570993777173E-04   -0.7438434759497104E-05    0.2871096571107913E-01   -0.1038506377777339E+00   -0.4877319489114285E-07   -0.5092825189345618E-09    0.7132905377460474E-11   -0.6224881721195175E-12    0.1235000324228963E-08
 -0.4752   0.3403    0.5004455345690967E-01    0.4866866209491864E-03   -0.9050993852590123E-05    0.7510196757520024E-01   -0.4681388322498624E+00   -0.2579300931062499E-06   -0.5291298024734381E-09    0.9463471672965795E-11   -0.5846781392371270E-12    0.1262369153653964E-08
 -0.4771   0.3137    0.4581077000645763E-01    0.9730753408478540E-03   -0.1051455522742032E-04    0.1118011579910999E+00   -0.9216604350327414E+00   -0.5184398278905084E-06   -0.5484838000446857E-09    0.1201735932987447E-10   -0.4854380786234458E-12    0.1131141978694128E-08
 -0.4792   0.2860    0.4064977177472881E-01    0.1555921050434246E-02   -0.1195013185563385E-04    0.1385223732849595E+00   -0.1464880551694265E+01   -0.8306471620445778E-06   -0.5631934606176170E-09    0.1476802707900404E-10   -0.4268321807110453E-12    0.8251393526781392E-09
 -0.4813   0.2572    0.3487215296469279E-01    0.2238560540259925E-02   -0.1339201699396478E-04    0.1565845180807938E+00   -0.2100621814587753E+01   -0.1196413104355536E-05   -0.5686458456888310E-09    0.1771873620048936E-10   -0.3101061074595179E-12    0.3732458057903454E-09
 -0.4835   0.2275    0.2882714647309681E-01    0.3022575185409038E-02   -0.1478298414194583E-04    0.1683278544953988E+00   -0.2829983467704516E+01   -0.1616639398954095E-05   -0.5609640911508063E-09    0.2085928652029168E-10   -0.2180061686729573E-12   -0.1602010798323894E-09
 -0.4858   0.1970    0.2288301908381027E-01    0.3902264966357222E-02   -0.1597311576966987E-04    0.1762636712332034E+00   -0.3647245956230380E+01   -0.2088364322580670E-05   -0.5377197784262044E-09    0.2410148122744538E-10   -0.1001421168211891E-12   -0.7021078605659592E-09
 -0.4881   0.1658    0.1741631442900353E-01    0.4860329865976769E-02   -0.1677714722160414E-04    0.1824231188976886E+00   -0.4535949194375901E+01   -0.2602373002186572E-05   -0.4979614984246261E-09    0.2721596559229766E-10    0.9200973316580985E-14   -0.1194534245607323E-08
 -0.4904   0.1340    0.1279982895067262E-01    0.5866429604966882E-02   -0.1701435112863066E-04    0.1881312824132163E+00   -0.5467629019093367E+01   -0.3142458897826138E-05   -0.4420295449114597E-09    0.2985169750280292E-10    0.1281752481929743E-12   -0.1605882471054573E-08
 -0.4928   0.1018    0.9380532221628534E-02    0.6878967403248310E-02   -0.1655798963849709E-04    0.1941157274199211E+00   -0.6403542042435744E+01   -0.3686327060822935E-05   -0.3714311427871486E-09    0.3158330541541687E-10    0.2378097718747085E-12   -0.1927116681944147E-08
 -0.4952   0.0693    0.7447023403491759E-02    0.7848969821657977E-02   -0.1533737731453455E-04    0.2007307860778193E+00   -0.7298290418579132E+01   -0.4207703653549569E-05   -0.2887711215981970E-09    0.3206990228932227E-10    0.2989691827437468E-12   -0.2163349925414504E-08
 -0.4976   0.0367    0.7192925967853225E-02    0.8724452296856779E-02   -0.1333641129920955E-04    0.2081438534970454E+00   -0.8103873867315542E+01   -0.4678651426034660E-05   -0.1975897605255295E-09    0.3112349267198056E-10    0.3483741073395663E-12   -0.2324965146620339E-08
 -0.5000   0.0041    0.8683735518095471E-02    0.9454135264724804E-02   -0.1056919763624350E-04    0.2164417807625463E+00   -0.8773119336832497E+01   -0.5071586394508613E-05   -0.1021474710372061E-09    0.2874972482302951E-10    0.3536268500248241E-12   -0.2423169699616867E-08
 -0.5024  -0.0284    0.1183232840392122E-01    0.9990369981060985E-02   -0.7077438244486309E-05    0.2256770178209533E+00   -0.9262369792373445E+01   -0.5360839237664138E-05   -0.6820068815249769E-11    0.2517563935100497E-10    0.3100852907778062E-12   -0.2467977797820931E-08
 -0.5048  -0.0606    0.1638636613707517E-01    0.1029188729234818E-01   -0.2931885898338047E-05    0.2358825297616376E+00   -0.9534008581413399E+01   -0.5524141829851442E-05    0.8417818525563447E-10    0.2072586546830735E-10    0.2202682480856311E-12   -0.2467632523664443E-08
 -0.5071  -0.0924    0.2193108703806244E-01    0.1032722870590606E-01    0.1741157942254955E-05    0.2470740002879813E+00   -0.9559589821418797E+01   -0.5544477646300906E-05    0.1674659824875413E-09    0.1582767250596362E-10    0.1064096727398933E-12   -0.2428563206438583E-08
 -0.5094  -0.1236    0.2791252772954149E-01    0.1007924766228749E-01    0.6736956190554434E-05    0.2592478429250399E+00   -0.9323942896983715E+01   -0.5412504113324685E-05    0.2406506070806724E-09    0.1090189050145796E-10   -0.6143002773129069E-13   -0.2356790663668451E-08
 -0.5117  -0.1541    0.3368599736395232E-01    0.9550160902125276E-02    0.1175434895150836E-04    0.2723784403018585E+00   -0.8829731225723561E+01   -0.5129300064443837E-05    0.3027430250934771E-09    0.6416922548879711E-11   -0.2272071419895383E-12   -0.2256641642647828E-08
 -0.5138  -0.1838    0.3859021815369991E-01    0.8765570844864489E-02    0.1641112230943161E-04    0.2864160630827327E+00   -0.8101061015424975E+01   -0.4708526449529438E-05    0.3541687984554009E-09    0.2734534820802992E-11   -0.4068967385251199E-12   -0.2133080460528514E-08
 -0.5160  -0.2126    0.4203825782820938E-01    0.7775335107273609E-02    0.2029374803972872E-04    0.3012860954716007E+00   -0.7184163091278824E+01   -0.4176945263865424E-05    0.3964335318351608E-09    0.1105782132526656E-12   -0.5810768533009991E-12   -0.1989782014502617E-08
 -0.5180  -0.2403    0.4360616921496881E-01    0.6649559257285983E-02    0.2303837581282878E-04    0.3168895261590624E+00   -0.6143666156384620E+01   -0.3572233577881578E-05    0.4318610261067057E-09   -0.1351529999027434E-11   -0.7086969899816609E-12   -0.1830704381491910E-08
 -0.5200  -0.2669    0.4309496452403289E-01    0.5469567625753916E-02    0.2441720145808405E-04    0.3331039152529799E+00   -0.5054282808709198E+01   -0.2938175435338112E-05    0.4627588590100373E-09   -0.1754651979268829E-11   -0.8507222704068340E-12   -0.1660471354164583E-08
 -0.5218  -0.2921    0.4054717751431882E-01    0.4315783112804616E-02    0.2439157165132875E-04    0.3497834350164670E+00   -0.3989771262686565E+01   -0.2318060688347973E-05    0.4909511616690843E-09   -0.1313948949643873E-11   -0.9467565620369101E-12   -0.1483205846336544E-08
 -0.5236  -0.3159    0.3621432759718612E-01    0.3255974034543889E-02    0.2311661645061042E-04    0.3667565831773743E+00   -0.3012206995795409E+01   -0.1748419480006888E-05    0.5174903006111009E-09   -0.3723965580348931E-12   -0.1006833505456939E-11   -0.1302434608080327E-08
 -0.5252  -0.3382    0.3048941521495328E-01    0.2337252877410753E-02    0.2088173287072810E-04    0.3838212285179980E+00   -0.2164752857351153E+01   -0.1254603679915348E-05    0.5424693749755960E-09    0.7284728376077965E-12   -0.1012426253943488E-11   -0.1123184439552616E-08
 -0.5268  -0.3589    0.2382842500911305E-01    0.1583616537990656E-02    0.1803340476019661E-04    0.4007387519382945E+00   -0.1469388036990905E+01   -0.8495740467359139E-06    0.5654114884623418E-09    0.1704164587224000E-11   -0.1020142303964633E-11   -0.9485171068718268E-09
 -0.5282  -0.3779    0.1668364978561048E-01    0.9985828207887666E-03    0.1488241074756577E-04    0.4172313205683826E+00   -0.9293670100606191E+00   -0.5351796529797154E-06    0.5855401684351502E-09    0.2374926644233000E-11   -0.1018213291459347E-11   -0.7820725646950910E-09
 -0.5294  -0.3951    0.9460957811951935E-02    0.5708523408803497E-03    0.1166523347433124E-04    0.4329871923170935E+00   -0.5343046492817962E+00   -0.3053896281418878E-06    0.6022875219391377E-09    0.2681897239009690E-11   -0.9978545767452829E-12   -0.6270580894807143E-09
 -0.5306  -0.4105    0.2501958166375956E-02    0.2804471647620001E-03    0.8515449670265083E-05    0.4476770295208507E+00   -0.2658387161116330E+00   -0.1493923838260283E-06    0.6153635309646965E-09    0.2656468794937084E-11   -0.9671916045839168E-12   -0.4856466721825381E-09
 -0.5316  -0.4240   -0.3916849298065486E-02    0.1033217606268761E-03    0.5525052358077238E-05    0.4609796579437406E+00   -0.1017122743928580E+00   -0.5435546219511885E-07    0.6249706464150906E-09    0.2402345683494289E-11   -0.9631462294379389E-12   -0.3600687300403527E-09
 -0.5324  -0.4355   -0.9577741721834006E-02    0.1361957127248913E-04    0.2783179251283989E-05    0.4726106728455713E+00   -0.1796668725625072E-01   -0.6302166305685079E-08    0.6315890943922597E-09    0.2047872288413188E-11   -0.9542349549418461E-12   -0.2519264232989094E-09
 -0.5331  -0.4450   -0.1431814324019303E-01   -0.1594564649625932E-04    0.5338640225515515E-06    0.4823447901517812E+00    0.1082243188887058E-01    0.9259327034873361E-08    0.6362017744218629E-09    0.1718618303225838E-11   -0.9555576815922784E-12   -0.1619940995581381E-09
 -0.5337  -0.4524   -0.1803298620494408E-01   -0.1340287066066360E-04   -0.8808073823197563E-06    0.4900247647055080E+00    0.1043907575535416E-01    0.7595653125372951E-08    0.6397485425527899E-09    0.1474273828017125E-11   -0.9385200949729722E-12   -0.9143372864395261E-10
 -0.5340  -0.4577   -0.2068003218221781E-01   -0.3801279297079726E-05   -0.1034374029343097E-05    0.4955553891647954E+00    0.3553226701082110E-02    0.2006830291684634E-08    0.6438388348937313E-09    0.1286841726927390E-11   -0.9901185774041643E-12   -0.4059894976628231E-10
 -0.5343  -0.4609   -0.2226676421607277E-01   -0.9408700422786550E-07   -0.9437714285991912E-07    0.4988874679032873E+00    0.4985714478598302E-03    0.8259691815774766E-10    0.6483259353093525E-09    0.6725092488099604E-12   -0.6774791231484167E-12   -0.9843237227906421E-11
 -0.5344  -0.4619   -0.2279806582184231E-01    0.0000000000000000E+00    0.0000000000000000E+00    0.5000000000000000E+00   -0.1397759661947505E-03    0.0000000000000000E+00    0.0000000000000000E+00    0.0000000000000000E+00    0.0000000000000000E+00    0.0000000000000000E+00
 -0.4576   0.5351    0.2401633972565265E-01    0.0000000000000000E+00    0.0000000000000000E+00   -0.5000000000000000E+00   -0.4412630228729116E-02    0.0000000000000000E+00    0.0000000000000000E+00    0.0000000000000000E+00    0.0000000000000000E+00    0.0000000000000000E+00
 -0.4577   0.5340    0.2454617940920679E-01    0.6103903622670040E-06   -0.3478439167985929E-05   -0.4961327305857099E+00   -0.2087981239702353E-02   -0.2036607985370637E-08   -0.4381345100092082E-09   -0.6251760719354349E-12   -0.8293103617024178E-12    0.5276167306875190E-11
 -0.4579   0.5308    0.2612011317726774E-01    0.3169272335600830E-05   -0.3169044832541677E-05   -0.4845490699017336E+00    0.3600286080430334E-02   -0.1604846992651582E-07   -0.4392692884850930E-09   -0.1931899952511973E-11   -0.1985672477139433E-11    0.2197056555783283E-10
 -0.4583   0.5255    0.2868202685668622E-01   -0.1279470125962458E-04    0.1270169237078102E-04   -0.4653126841337080E+00    0.1263379037552615E-01    0.5436713766660786E-08   -0.4412549527155196E-09   -0.2674925385359739E-11   -0.2430510653850249E-11    0.4960386788821491E-10
 -0.4589   0.5181    0.3210274321525690E-01   -0.1020105653042131E-03    0.3758335829102301E-04   -0.4385581175934156E+00    0.3336492240559814E-01    0.1951089631543239E-06   -0.4433858800945156E-09   -0.2654593558859553E-11   -0.2612623659081770E-11    0.8862333956971558E-10
 -0.4595   0.5086    0.3615505825588076E-01   -0.3143536499797870E-03    0.5923328545177564E-04   -0.4045242609042847E+00    0.7682066431452828E-01    0.6651088673020614E-06   -0.4455113396251154E-09   -0.2107937739290189E-11   -0.2654104366839327E-11    0.1406896699834848E-09
 -0.4604   0.4972    0.4052963663200825E-01   -0.6544691878263516E-03    0.6959032933895752E-04   -0.3635870825351407E+00    0.1456449807696702E+00    0.1422338414904827E-05   -0.4478177134670247E-09   -0.1182892325757301E-11   -0.2699337281475422E-11    0.2080611377630603E-09
 -0.4614   0.4837    0.4487245787089030E-01   -0.1071079413446532E-02    0.6552335702381123E-04   -0.3162938313510462E+00    0.2301345114492261E+00    0.2350522645650584E-05   -0.4505735645699005E-09    0.1853725506428816E-13   -0.2738934079538069E-11    0.2948827848570090E-09
 -0.4625   0.4683    0.4882308581371880E-01   -0.1467081268028481E-02    0.4742081962127699E-04   -0.2634164742647860E+00    0.3098453522929179E+00    0.3235327818227091E-05   -0.4542465154022679E-09    0.1621626444237023E-11   -0.2772717819232717E-11    0.4060852244747171E-09