 title="result"
 variables="x","y","P","u","v","t","omega","psi","RES1","RES2","RES3","RES4"
zone,j= 49,i= 49,f=point
 -0.3851   0.5930    0.2532191239864270E-01    0.0000000000000000E+00    0.0000000000000000E+00   -0.5000000000000000E+00    0.0000000000000000E+00    0.0000000000000000E+00    0.0000000000000000E+00    0.0000000000000000E+00    0.0000000000000000E+00    0.0000000000000000E+00
 -0.3853   0.5920    0.2584171960306243E-01    0.0000000000000000E+00    0.0000000000000000E+00   -0.4957213582407039E+00   -0.6226977753108383E-04    0.0000000000000000E+00    0.0000000000000000E+00    0.0000000000000000E+00    0.0000000000000000E+00    0.0000000000000000E+00
 -0.3860   0.5888    0.2737508156320637E-01    0.0000000000000000E+00    0.0000000000000000E+00   -0.4829057731834394E+00   -0.4246871625815799E-02    0.0000000000000000E+00    0.0000000000000000E+00    0.0000000000000000E+00    0.0000000000000000E+00    0.0000000000000000E+00
 -0.3871   0.5836    0.2986264691611661E-01    0.0000000000000000E+00    0.0000000000000000E+00   -0.4616262983757337E+00   -0.1611943534673666E-01    0.0000000000000000E+00    0.0000000000000000E+00    0.0000000000000000E+00    0.0000000000000000E+00    0.0000000000000000E+00
 -0.3887   0.5764    0.3319461462438938E-01    0.0000000000000000E+00    0.0000000000000000E+00   -0.4320445140217577E+00   -0.2998831332192425E-01    0.0000000000000000E+00    0.0000000000000000E+00    0.0000000000000000E+00    0.0000000000000000E+00    0.0000000000000000E+00
 -0.3906   0.5671    0.3717531373708375E-01    0.0000000000000000E+00    0.0000000000000000E+00   -0.3944679761284570E+00   -0.3701477713790892E-01    0.0000000000000000E+00    0.0000000000000000E+00    0.0000000000000000E+00    0.0000000000000000E+00    0.0000000000000000E+00
 -0.3930   0.5558    0.4153148975533390E-01    0.0000000000000000E+00    0.0000000000000000E+00   -0.3494241981685786E+00   -0.3178469465732989E-01    0.0000000000000000E+00    0.0000000000000000E+00    0.0000000000000000E+00    0.0000000000000000E+00    0.0000000000000000E+00
 -0.3958   0.5426    0.4593151912776573E-01    0.0000000000000000E+00    0.0000000000000000E+00   -0.2977449641601979E+00   -0.1457910158153621E-01    0.0000000000000000E+00    0.0000000000000000E+00    0.0000000000000000E+00    0.0000000000000000E+00    0.0000000000000000E+00
 -0.3990   0.5275    0.5001025643958702E-01    0.0000000000000000E+00    0.0000000000000000E+00   -0.2406535622926597E+00    0.7939148763616960E-02    0.0000000000000000E+00    0.0000000000000000E+00    0.0000000000000000E+00    0.0000000000000000E+00    0.0000000000000000E+00
 -0.4026   0.5106    0.5339950027609327E-01    0.0000000000000000E+00    0.0000000000000000E+00   -0.1798402440169824E+00    0.2287862749245926E-01    0.0000000000000000E+00    0.0000000000000000E+00    0.0000000000000000E+00    0.0000000000000000E+00    0.0000000000000000E+00
 -0.4066   0.4920    0.5576521485202030E-01    0.0000000000000000E+00    0.0000000000000000E+00   -0.1174958674038205E+00    0.1186438787883367E-01    0.0000000000000000E+00    0.0000000000000000E+00    0.0000000000000000E+00    0.0000000000000000E+00    0.0000000000000000E+00
 -0.4109   0.4717    0.5684825162281361E-01    0.0000000000000000E+00    0.0000000000000000E+00   -0.5625573666901369E-01   -0.4663005416566172E-01    0.0000000000000000E+00    0.0000000000000000E+00    0.0000000000000000E+00    0.0000000000000000E+00    0.0000000000000000E+00
 -0.4156   0.4498    0.5649877830245401E-01    0.0000000000000000E+00    0.0000000000000000E+00    0.1002603706976696E-02   -0.1732364918290120E+00    0.0000000000000000E+00    0.0000000000000000E+00    0.0000000000000000E+00    0.0000000000000000E+00    0.0000000000000000E+00
 -0.4205   0.4264    0.5469284791009506E-01    0.0000000000000000E+00    0.0000000000000000E+00    0.5154214574849276E-01   -0.3835812387302002E+00    0.0000000000000000E+00    0.0000000000000000E+00    0.0000000000000000E+00    0.0000000000000000E+00    0.0000000000000000E+00
 -0.4258   0.4017    0.5152662338366735E-01    0.0000000000000000E+00    0.0000000000000000E+00    0.9328946526602953E-01   -0.6868390281953624E+00    0.0000000000000000E+00    0.0000000000000000E+00    0.0000000000000000E+00    0.0000000000000000E+00    0.0000000000000000E+00
 -0.4313   0.3757    0.4719412053518514E-01    0.0000000000000000E+00    0.0000000000000000E+00    0.1253368952176648E+00   -0.1087785687509623E+01    0.0000000000000000E+00    0.0000000000000000E+00    0.0000000000000000E+00    0.0000000000000000E+00    0.0000000000000000E+00
 -0.4371   0.3485    0.4195914740705640E-01    0.0000000000000000E+00    0.0000000000000000E+00    0.1481772356544013E+00   -0.1590001328558551E+01    0.0000000000000000E+00    0.0000000000000000E+00    0.0000000000000000E+00    0.0000000000000000E+00    0.0000000000000000E+00
 -0.4431   0.3203    0.3612988972566145E-01    0.0000000000000000E+00    0.0000000000000000E+00    0.1634951162734661E+00   -0.2196846418563761E+01    0.0000000000000000E+00    0.0000000000000000E+00    0.0000000000000000E+00    0.0000000000000000E+00    0.0000000000000000E+00
 -0.4493   0.2911    0.3004099509883995E-01    0.0000000000000000E+00    0.0000000000000000E+00    0.1735788657814141E+00   -0.2909090251511641E+01    0.0000000000000000E+00    0.0000000000000000E+00    0.0000000000000000E+00    0.0000000000000000E+00    0.0000000000000000E+00
 -0.4557   0.2612    0.2404425288732930E-01    0.0000000000000000E+00    0.0000000000000000E+00    0.1806479253063999E+00   -0.3720792290923862E+01    0.0000000000000000E+00    0.0000000000000000E+00    0.0000000000000000E+00    0.0000000000000000E+00    0.0000000000000000E+00
 -0.4622   0.2305    0.1850350253961239E-01    0.0000000000000000E+00    0.0000000000000000E+00    0.1864066051710854E+00   -0.4615913316576827E+01    0.0000000000000000E+00    0.0000000000000000E+00    0.0000000000000000E+00    0.0000000000000000E+00    0.0000000000000000E+00
 -0.4688   0.1994    0.1378526290133810E-01    0.0000000000000000E+00    0.0000000000000000E+00    0.1919363942031826E+00   -0.5567261169373135E+01    0.0000000000000000E+00    0.0000000000000000E+00    0.0000000000000000E+00    0.0000000000000000E+00    0.0000000000000000E+00
 -0.4755   0.1678    0.1023883096674171E-01    0.0000000000000000E+00    0.0000000000000000E+00    0.1978248319468288E+00   -0.6537986724543893E+01    0.0000000000000000E+00    0.0000000000000000E+00    0.0000000000000000E+00    0.0000000000000000E+00    0.0000000000000000E+00
 -0.4823   0.1359    0.8166388815324530E-02    0.0000000000000000E+00    0.0000000000000000E+00    0.2043603214153647E+00   -0.7484710749389237E+01    0.0000000000000000E+00    0.0000000000000000E+00    0.0000000000000000E+00    0.0000000000000000E+00    0.0000000000000000E+00
 -0.4891   0.1040    0.7789012659456368E-02    0.0000000000000000E+00    0.0000000000000000E+00    0.2116837023353875E+00   -0.8360963915766305E+01    0.0000000000000000E+00    0.0000000000000000E+00    0.0000000000000000E+00    0.0000000000000000E+00    0.0000000000000000E+00
 -0.4959   0.0720    0.9214966148928827E-02    0.0000000000000000E+00    0.0000000000000000E+00    0.2198723122948353E+00   -0.9119971602286116E+01    0.0000000000000000E+00    0.0000000000000000E+00    0.0000000000000000E+00    0.0000000000000000E+00    0.0000000000000000E+00
 -0.5026   0.0401    0.1241418051783377E-01    0.0000000000000000E+00    0.0000000000000000E+00    0.2289756712906632E+00   -0.9716624402487458E+01    0.0000000000000000E+00    0.0000000000000000E+00    0.0000000000000000E+00    0.0000000000000000E+00    0.0000000000000000E+00
 -0.5094   0.0085    0.1720079127634445E-01    0.0000000000000000E+00    0.0000000000000000E+00    0.2390265319234002E+00   -0.1010923310020861E+02    0.0000000000000000E+00    0.0000000000000000E+00    0.0000000000000000E+00    0.0000000000000000E+00    0.0000000000000000E+00
 -0.5160  -0.0226    0.2322627463276659E-01    0.0000000000000000E+00    0.0000000000000000E+00    0.2500418898664086E+00   -0.1026202557196908E+02    0.0000000000000000E+00    0.0000000000000000E+00    0.0000000000000000E+00    0.0000000000000000E+00    0.0000000000000000E+00
 -0.5225  -0.0533    0.2998833944514968E-01    0.0000000000000000E+00    0.0000000000000000E+00    0.2620205804854654E+00   -0.1014910352328435E+02    0.0000000000000000E+00    0.0000000000000000E+00    0.0000000000000000E+00    0.0000000000000000E+00    0.0000000000000000E+00
 -0.5289  -0.0832    0.3686282664680487E-01    0.0000000000000000E+00    0.0000000000000000E+00    0.2749401633908627E+00   -0.9759797263383851E+01    0.0000000000000000E+00    0.0000000000000000E+00    0.0000000000000000E+00    0.0000000000000000E+00    0.0000000000000000E+00
 -0.5351  -0.1124    0.4316396366326599E-01    0.0000000000000000E+00    0.0000000000000000E+00    0.2887543591926908E+00   -0.9104244080461472E+01    0.0000000000000000E+00    0.0000000000000000E+00    0.0000000000000000E+00    0.0000000000000000E+00    0.0000000000000000E+00
 -0.5411  -0.1406    0.4823066689428124E-01    0.0000000000000000E+00    0.0000000000000000E+00    0.3033917384354870E+00   -0.8217043786679307E+01    0.0000000000000000E+00    0.0000000000000000E+00    0.0000000000000000E+00    0.0000000000000000E+00    0.0000000000000000E+00
 -0.5468  -0.1678    0.5152448624109672E-01    0.0000000000000000E+00    0.0000000000000000E+00    0.3187558519818808E+00   -0.7156627671201169E+01    0.0000000000000000E+00    0.0000000000000000E+00    0.0000000000000000E+00    0.0000000000000000E+00    0.0000000000000000E+00
 -0.5524  -0.1938    0.5271436901332024E-01    0.0000000000000000E+00    0.0000000000000000E+00    0.3347262970167783E+00   -0.5999007250012491E+01    0.0000000000000000E+00    0.0000000000000000E+00    0.0000000000000000E+00    0.0000000000000000E+00    0.0000000000000000E+00
 -0.5576  -0.2185    0.5172212694761508E-01    0.0000000000000000E+00    0.0000000000000000E+00    0.3511594852961843E+00   -0.4826695738171021E+01    0.0000000000000000E+00    0.0000000000000000E+00    0.0000000000000000E+00    0.0000000000000000E+00    0.0000000000000000E+00
 -0.5626  -0.2419    0.4871425432810299E-01    0.0000000000000000E+00    0.0000000000000000E+00    0.3678875643631573E+00   -0.3715798769034170E+01    0.0000000000000000E+00    0.0000000000000000E+00    0.0000000000000000E+00    0.0000000000000000E+00    0.0000000000000000E+00
 -0.5672  -0.2637    0.4404550763213859E-01    0.0000000000000000E+00    0.0000000000000000E+00    0.3847145797061288E+00   -0.2725239545995679E+01    0.0000000000000000E+00    0.0000000000000000E+00    0.0000000000000000E+00    0.0000000000000000E+00    0.0000000000000000E+00
 -0.5715  -0.2841    0.3817667764287943E-01    0.0000000000000000E+00    0.0000000000000000E+00    0.4014107992002437E+00   -0.1891115058345271E+01    0.0000000000000000E+00    0.0000000000000000E+00    0.0000000000000000E+00    0.0000000000000000E+00    0.0000000000000000E+00
 -0.5755  -0.3027    0.3159398668638599E-01    0.0000000000000000E+00    0.0000000000000000E+00    0.4177086060431047E+00   -0.1226941989587202E+01    0.0000000000000000E+00    0.0000000000000000E+00    0.0000000000000000E+00    0.0000000000000000E+00    0.0000000000000000E+00
 -0.5791  -0.3196    0.2475013722367916E-01    0.0000000000000000E+00    0.0000000000000000E+00    0.4333050226098435E+00   -0.7282624931320374E+00    0.0000000000000000E+00    0.0000000000000000E+00    0.0000000000000000E+00    0.0000000000000000E+00    0.0000000000000000E+00
 -0.5823  -0.3347    0.1803370226329776E-01    0.0000000000000000E+00    0.0000000000000000E+00    0.4478750123497667E+00   -0.3789770421418141E+00    0.0000000000000000E+00    0.0000000000000000E+00    0.0000000000000000E+00    0.0000000000000000E+00    0.0000000000000000E+00
 -0.5851  -0.3479    0.1176191026862168E-01    0.0000000000000000E+00    0.0000000000000000E+00    0.4610956240474845E+00   -0.1567705983663452E+00    0.0000000000000000E+00    0.0000000000000000E+00    0.0000000000000000E+00    0.0000000000000000E+00    0.0000000000000000E+00
 -0.5875  -0.3592    0.6185738423197228E-02    0.0000000000000000E+00    0.0000000000000000E+00    0.4726754029926463E+00   -0.3620075533969552E-01    0.0000000000000000E+00    0.0000000000000000E+00    0.0000000000000000E+00    0.0000000000000000E+00    0.0000000000000000E+00
 -0.5895  -0.3685    0.1495199299385062E-02    0.0000000000000000E+00    0.0000000000000000E+00    0.4823795931289926E+00    0.1074168437534173E-01    0.0000000000000000E+00    0.0000000000000000E+00    0.0000000000000000E+00    0.0000000000000000E+00    0.0000000000000000E+00
 -0.5910  -0.3757   -0.2182639102415491E-02    0.0000000000000000E+00    0.0000000000000000E+00    0.4900423651324748E+00    0.1431858886567496E-01    0.0000000000000000E+00    0.0000000000000000E+00    0.0000000000000000E+00    0.0000000000000000E+00    0.0000000000000000E+00
 -0.5921  -0.3809   -0.4791863256029072E-02    0.0000000000000000E+00    0.0000000000000000E+00    0.4955628688113893E+00    0.4357119466895531E-02    0.0000000000000000E+00    0.0000000000000000E+00    0.0000000000000000E+00    0.0000000000000000E+00    0.0000000000000000E+00
 -0.5928  -0.3841   -0.6347552583735769E-02    0.0000000000000000E+00    0.0000000000000000E+00    0.4988893186820155E+00   -0.1069577144521521E-03    0.0000000000000000E+00    0.0000000000000000E+00    0.0000000000000000E+00    0.0000000000000000E+00    0.0000000000000000E+00
 -0.5930  -0.3851   -0.6868011808388986E-02    0.0000000000000000E+00    0.0000000000000000E+00    0.5000000000000000E+00    0.0000000000000000E+00    0.0000000000000000E+00    0.0000000000000000E+00    0.0000000000000000E+00    0.0000000000000000E+00    0.0000000000000000E+00
 -0.3841   0.5928    0.2543472205578445E-01    0.0000000000000000E+00    0.0000000000000000E+00   -0.5000000000000000E+00   -0.6243981130505988E-04    0.0000000000000000E+00    0.0000000000000000E+00    0.0000000000000000E+00    0.0000000000000000E+00    0.0000000000000000E+00
 -0.3843   0.5918    0.2595405449161919E-01    0.2030477914679520E-06   -0.2031416905513995E-06   -0.4957212571299899E+00   -0.5510402255062359E-03   -0.1371469137622595E-09    0.8995426398119427E-09    0.3609743797275411E-12    0.3619756404338315E-12   -0.8480110819282516E-11
 -0.3850   0.5886    0.2748695481833418E-01    0.4252897711611206E-05   -0.1060796148859266E-05   -0.4829053675671986E+00   -0.3847270573129875E-02   -0.2293273344138538E-08    0.9021596093870127E-09    0.7224147495488165E-12    0.5399504628134100E-12   -0.3544866917365441E-10
 -0.3861   0.5834    0.2997116036175914E-01    0.1557441488922294E-04   -0.1213352695615796E-05   -0.4616253809133531E+00   -0.1299474417549801E-01   -0.8662864301063684E-08    0.9051217939211320E-09    0.7219337974651019E-12    0.5354675036706169E-12   -0.7953964310108974E-10
 -0.3876   0.5761    0.3329447031278956E-01    0.2923750672069835E-04   -0.7577058773533403E-06   -0.4320428787546884E+00   -0.2467930253424696E-01   -0.1613137299627190E-07    0.9081969200123996E-09    0.3832854172935996E-12    0.5570973370117027E-12   -0.1413560136998004E-09
 -0.3896   0.5669    0.3726351853231814E-01    0.3642564002838096E-04   -0.7993452548434541E-07   -0.3944654269849004E+00   -0.3106575986854683E-01   -0.2007264807045860E-07    0.9114817350593194E-09   -0.4051099733448638E-12    0.5609168186350433E-12   -0.2203725465999007E-09
 -0.3920   0.5556    0.4160680919942168E-01    0.3140397826487343E-04    0.5110833348917111E-06   -0.3494205507386963E+00   -0.2693445162317799E-01   -0.1725883421619516E-07    0.9144791640516153E-09   -0.1650075909243043E-11    0.5741440309292578E-12   -0.3161549945451814E-09
 -0.3948   0.5424    0.4599390701800568E-01    0.1438279599353651E-04    0.8076735445504714E-06   -0.2977400478099544E+00   -0.1234138604243890E-01   -0.7919255976307286E-08    0.9168906972643193E-09   -0.3227307310282868E-11    0.5875053048221002E-12   -0.4264420622179799E-09
 -0.3980   0.5273    0.5006048674729216E-01   -0.7691261884592220E-05    0.6991387763886902E-06   -0.2406472360778523E+00    0.6366589970992078E-02    0.4271736957739225E-08    0.9185954087231191E-09   -0.4959298596785011E-11    0.5762799092090543E-12   -0.5464312752279099E-09
 -0.4016   0.5104    0.5343905875470279E-01   -0.2125405788063967E-04    0.1201769272823053E-06   -0.1798324358028742E+00    0.1676468012523055E-01    0.1195172311693868E-07    0.9197985140468184E-09   -0.6669765434397235E-11    0.5439281701912976E-12   -0.6665214352663540E-09
 -0.4056   0.4917    0.5579611306203541E-01   -0.6933482562756316E-05   -0.9383664214718301E-06   -0.1174866358517763E+00    0.1019510090667826E-02    0.4745472005081675E-08    0.9207904102821046E-09   -0.8227668546467726E-11    0.5241388920107504E-12   -0.7713262945019395E-09
 -0.4099   0.4714    0.5687277005085033E-01    0.5799843518681572E-04   -0.2409711531207966E-05   -0.5624534420174888E-01   -0.6178883149333956E-01   -0.2960683128783707E-07    0.9217068566713671E-09   -0.9567915904007407E-11    0.4796545105545391E-12   -0.8366621978561639E-09
 -0.4145   0.4496    0.5651910085518782E-01    0.1953736984889552E-03   -0.4145084609691972E-05    0.1013635189458114E-02   -0.1918258870708169E+00   -0.1028061284878161E-06    0.9220220498554199E-09   -0.1068295452100188E-10    0.4949825271882702E-12   -0.8305250653872776E-09
 -0.4195   0.4262    0.5471091937917958E-01    0.4218015637589100E-03   -0.5970275557720850E-05    0.5155304518740928E-01   -0.4044879370058310E+00   -0.2237889610942744E-06    0.9202417352444092E-09   -0.1158903528697408E-10    0.4584874147006701E-12   -0.7172673149868913E-09
 -0.4247   0.4015    0.5154424063545322E-01    0.7471019740235815E-03   -0.7762905193234628E-05    0.9329933888935600E-01   -0.7089545688549392E+00   -0.3977921920300470E-06    0.9135742700533411E-09   -0.1231566237880344E-10    0.3777464452348056E-12   -0.4680442422522191E-09
 -0.4303   0.3754    0.4721314359959949E-01    0.1176397017514959E-02   -0.9494214975268995E-05    0.1253449648290176E+00   -0.1110015823323268E+01   -0.6275721565661107E-06    0.8983389206129733E-09   -0.1284534284495820E-10    0.3305827833699482E-12   -0.7494714571176786E-10
 -0.4360   0.3483    0.4198144227420945E-01    0.1713423365865370E-02   -0.1118971214722200E-04    0.1481830867947632E+00   -0.1611077127103341E+01   -0.9151331814901580E-06    0.8706385473677969E-09   -0.1315929309964048E-10    0.2020536515878746E-12    0.4384596435924593E-09
 -0.4420   0.3200    0.3615698532326971E-01    0.2361534925973221E-02   -0.1285685672745922E-04    0.1634988064646709E+00   -0.2215040382131162E+01   -0.1262323941987733E-05    0.8274460942814255E-09   -0.1319260672927314E-10    0.1289246487345963E-12    0.1019244296601718E-08
 -0.4482   0.2909    0.3007359301340606E-01    0.3121204284759960E-02   -0.1443262446445831E-04    0.1735808231299529E+00   -0.2922020392943349E+01   -0.1669452188500952E-05    0.7674485318076574E-09   -0.1285560546904208E-10    0.5065392549852277E-14    0.1600417928390718E-08
 -0.4546   0.2609    0.2408191821400784E-01    0.3985701863788706E-02   -0.1578584993887666E-04    0.1806487163979361E+00   -0.3725383053417084E+01   -0.2132987253380377E-05    0.6913166913924407E-09   -0.1199667969131735E-10   -0.1077610223276793E-12    0.2122253109360095E-08
 -0.4611   0.2303    0.1854460131682335E-01    0.4937566441773068E-02   -0.1675088472892873E-04    0.1864067243762169E+00   -0.4608546665696911E+01   -0.2643631002955088E-05    0.6015001621784144E-09   -0.1037949587390230E-10   -0.2131211873646066E-12    0.2547371276049280E-08
 -0.4677   0.1991    0.1382716937596042E-01    0.5947560457738877E-02   -0.1717389504005101E-04    0.1919361691525459E+00   -0.5544081154547361E+01   -0.3185758015957492E-05    0.5019906296199750E-09   -0.7760438125448132E-11   -0.3374800439104320E-12    0.2863750405649595E-08
 -0.4745   0.1676    0.1027823072371972E-01    0.6976321009566100E-02   -0.1694179262136007E-04    0.1978244351930689E+00   -0.6495297303751769E+01   -0.3738283352744881E-05    0.3977743967542580E-09   -0.3915964774670044E-11   -0.3880784582577235E-12    0.3077860214958927E-08
 -0.4812   0.1357    0.8199606853998282E-02    0.7977716744939708E-02   -0.1599274314534842E-04    0.2043598258633350E+00   -0.7419392252499539E+01   -0.4276457869106022E-05    0.2945471158644075E-09    0.1181083009171857E-11   -0.4820310817166273E-12    0.3204223231363656E-08
 -0.4880   0.1037    0.7812226727327655E-02    0.8902509855179420E-02   -0.1430327161503215E-04    0.2116831314870990E+00   -0.8270847341884592E+01   -0.4773838454491227E-05    0.1981898360703394E-09    0.7356809605951753E-11   -0.5120764923205456E-12    0.3259618134437980E-08
 -0.4948   0.0717    0.9224341044776520E-02    0.9701306322629886E-02   -0.1187260466950223E-04    0.2198716699983014E+00   -0.9004160411556672E+01   -0.5203859835474239E-05    0.1142122021957626E-09    0.1423078321849403E-10   -0.4857295121674099E-12    0.3258701460583102E-08
 -0.5016   0.0399    0.1240591223480129E-01    0.1032663838754246E-01   -0.8709422130622979E-05    0.2289749553794469E+00   -0.9575758370432021E+01   -0.5540973529838249E-05    0.4707350481636396E-10    0.2120625897106265E-10   -0.4140299214583365E-12    0.3212817760098186E-08
 -0.5083   0.0083    0.1717120333619552E-01    0.1073481874651939E-01   -0.4839383363984371E-05    0.2390257395828395E+00   -0.9945716092734241E+01   -0.5761618696999116E-05   -0.5158685978390309E-12    0.2764405371280532E-10   -0.3182107355392816E-12    0.3131090591662611E-08
 -0.5149  -0.0228    0.2317199948662110E-01    0.1088857259298406E-01   -0.3261200583601850E-06    0.2500410196600176E+00   -0.1008016499421947E+02   -0.5845671327509034E-05   -0.2800732248117027E-10    0.3286410032998788E-10   -0.1658410821864242E-12    0.3020213263510430E-08
 -0.5214  -0.0535    0.2990670082048010E-01    0.1076118885172282E-01    0.4691619047498223E-05    0.2620196330736153E+00   -0.9955106076347123E+01   -0.5778641061321856E-05   -0.3744366795788157E-10    0.3621225541650119E-10    0.2134056820146668E-13    0.2886459271253528E-08
 -0.5278  -0.0834    0.3675234309850894E-01    0.1034210773073468E-01    0.9971322542854706E-05    0.2749391414848132E+00   -0.9561476973913686E+01   -0.5554736120484592E-05   -0.3310281562751705E-10    0.3729599962198904E-10    0.2327998904760875E-12    0.2732743892286393E-08
 -0.5340  -0.1126    0.4302492668185485E-01    0.9642699352333734E-02    0.1515548525826184E-04    0.2887532667820875E+00   -0.8910388896489598E+01   -0.5179933936582578E-05   -0.2110563807056209E-10    0.3585687302631868E-10    0.4410777298957669E-12    0.2563402056593445E-08
 -0.5400  -0.1408    0.4806552899024375E-01    0.8699990396915316E-02    0.1980588530864300E-04    0.3033905793530185E+00   -0.8036409927508300E+01   -0.4674075704024686E-05   -0.8248478289285543E-11    0.3213340704633083E-10    0.6316336342848672E-12    0.2380820875516609E-08
 -0.5458  -0.1680    0.5133792112641331E-01    0.7575890123461759E-02    0.2347493307733066E-04    0.3187546281804701E+00   -0.6996776499181170E+01   -0.4070392068357107E-05   -0.5766984112476337E-12    0.2653494091120479E-10    0.7883693697863237E-12    0.2187782413565209E-08
 -0.5513  -0.1940    0.5251280096801844E-01    0.6350561990877120E-02    0.2580919909710145E-04    0.3347250073789763E+00   -0.5865230135530989E+01   -0.3412033697834337E-05   -0.2208018490268415E-11    0.1985772657420171E-10    0.9425793479067579E-12    0.1986600217662726E-08
 -0.5566  -0.2187    0.5151287302594760E-01    0.5110797719231811E-02    0.2663376592856282E-04    0.3511581261195823E+00   -0.4721412439013277E+01   -0.2745702024116628E-05   -0.1446532477133999E-10    0.1299366170215421E-10    0.1006070227127509E-11    0.1780660721303895E-08
 -0.5615  -0.2421    0.4850442909863243E-01    0.3936531583619088E-02    0.2599553753591803E-04    0.3678861325645001E+00   -0.3638538214596883E+01   -0.2114492898326400E-05   -0.3600657272340158E-10    0.6775663363711715E-11    0.1046440711860441E-11    0.1572097889368518E-08
 -0.5662  -0.2640    0.4384112192501677E-01    0.2889610717151218E-02    0.2412969384798007E-04    0.3847130789736952E+00   -0.2673241193565342E+01   -0.1551689242856119E-05   -0.6353349790710894E-10    0.1796396364994735E-11    0.1036837282697434E-11    0.1363825753719627E-08
 -0.5705  -0.2843    0.3798207625589287E-01    0.2007928922420018E-02    0.2138469355644797E-04    0.4014092478105457E+00   -0.1860199755731796E+01   -0.1077756849728567E-05   -0.9309313042660250E-10   -0.1657812775945899E-11    0.1043248820664644E-11    0.1159451997953531E-08
 -0.5745  -0.3029    0.3141183809479947E-01    0.1305691243745488E-02    0.1811596542682534E-04    0.4177070433441515E+00   -0.1212456836170200E+01   -0.7002881280096117E-06   -0.1210572267429377E-09   -0.3612207755132602E-11    0.1016436934619946E-11    0.9625743570274015E-09
 -0.5781  -0.3198    0.2458173092373308E-01    0.7782215957050308E-03    0.1461645346117582E-04    0.4333035102754130E+00   -0.7257087468040009E+00   -0.4168336114688768E-06   -0.1449347933335510E-09   -0.4310806919760601E-11    0.9823669655517620E-12    0.7768886853276591E-09
 -0.5813  -0.3349    0.1787949355629707E-01    0.4085487646890510E-03    0.1107131873625141E-04    0.4478736274282375E+00   -0.3843844145647461E+00   -0.2181761762039887E-06   -0.1634400774441769E-09   -0.4128758099297691E-11    0.9585179872040328E-12    0.6046877391169270E-09
 -0.5841  -0.3481    0.1162184137527672E-01    0.1730541005930816E-03    0.7596693434055750E-05    0.4610944437592134E+00   -0.1666308653019159E+00   -0.9173259781970287E-07   -0.1765737243919485E-09   -0.3460287612000457E-11    0.9451536775451075E-12    0.4504884104639117E-09
 -0.5865  -0.3594    0.6059267667448897E-02    0.4465962068266266E-04    0.4298483473609147E-05    0.4726744851662627E+00   -0.4736219506014341E-01   -0.2284427251667070E-07   -0.1850522599738946E-09   -0.2659279046968166E-11    0.9323930516558221E-12    0.3158719882878636E-09
 -0.5884  -0.3687    0.1380622257083393E-02   -0.6491185158492537E-05    0.1436448949167290E-05    0.4823789592739544E+00    0.1289994402161825E-02    0.4316837996004709E-08   -0.1903500534278235E-09   -0.1979562347376174E-11    0.9439896780927270E-12    0.2035331963731735E-09
 -0.5900  -0.3759   -0.2289370581504524E-02   -0.1255139445165353E-04   -0.5574357224974671E-06    0.4900419934871204E+00    0.8989513356736768E-02    0.7261191038221061E-08   -0.1939521224831806E-09   -0.1548873876378032E-11    0.9233609970377143E-12    0.1148967431613412E-09
 -0.5911  -0.3812   -0.4898189814032602E-02   -0.4279736579097940E-05   -0.1100263969749586E-05    0.4955627010394151E+00    0.3728806270678843E-02    0.2299024118234482E-08   -0.1979675995616298E-09   -0.1295432077580427E-11    0.9936639185081919E-12    0.5092783898590081E-10
 -0.5918  -0.3843   -0.6456189550083311E-02   -0.1386214151143811E-06   -0.1388455399671848E-06    0.4988892766027662E+00    0.5836139602892511E-03    0.1192281682263161E-09   -0.2024451819290091E-09   -0.6876880792247575E-12    0.6767507561289410E-12    0.1280763114921285E-10
 -0.5920  -0.3853   -0.6976772971518266E-02    0.0000000000000000E+00    0.0000000000000000E+00    0.5000000000000000E+00   -0.1064221041324998E-03    0.0000000000000000E+00    0.0000000000000000E+00    0.0000000000000000E+00    0.0000000000000000E+00    0.0000000000000000E+00
 -0.3809   0.5921    0.2576969749931271E-01    0.0000000000000000E+00    0.0000000000000000E+00   -0.5000000000000000E+00   -0.4246409588619787E-02    0.0000000000000000E+00    0.0000000000000000E+00    0.0000000000000000E+00    0.0000000000000000E+00    0.0000000000000000E+00
 -0.3812   0.5911    0.2628664038584478E-01    0.1060241128962942E-05   -0.4252247910440511E-05   -0.4957197520460671E+00   -0.3846448217937721E-02   -0.2292928642589992E-08    0.9019044658244851E-09    0.5452870143266009E-12    0.6809258018547482E-12   -0.9013496763202178E-11
 -0.3818   0.5880    0.2781526208651227E-01    0.1281927724050806E-04   -0.1282189838736326E-04   -0.4828993403154075E+00   -0.3414820414786617E-02   -0.3134679124641197E-07    0.9029633638024670E-09    0.1625786744813285E-11    0.1676944824322013E-11   -0.3537464418612579E-10
 -0.3829   0.5827    0.3028952110236850E-01    0.4543713306695249E-04   -0.1589220978591240E-04   -0.4616117809286756E+00   -0.5830271094749685E-02   -0.1124724921370602E-06    0.9051169241186541E-09    0.2010674612917818E-11    0.2216014264450061E-11   -0.7959775373544975E-10
 -0.3845   0.5755    0.3359066669632578E-01    0.8766827042490378E-04   -0.1060796978614825E-04   -0.4320186488781123E+00   -0.1153108651990551E-01   -0.2140644366177214E-06    0.9078917374838458E-09    0.9626882624402811E-12    0.2604488239660308E-11   -0.1412264385297624E-09
 -0.3865   0.5662    0.3752805470593935E-01    0.1121707191288569E-03   -0.1407805167188792E-05   -0.3944275807352269E+00   -0.1599842735115611E-01   -0.2705487937476843E-06    0.9109617926531324E-09   -0.1825043588477016E-11    0.2876697469643419E-11   -0.2202917223637080E-09
 -0.3888   0.5549    0.4183491640363141E-01    0.9817272003986468E-04    0.6853508685040869E-05   -0.3493662228339390E+00   -0.1482723662642139E-01   -0.2349789949147853E-06    0.9138906601965924E-09   -0.6360415666373243E-11    0.3032649652234820E-11   -0.3161220833713951E-09
 -0.3917   0.5417    0.4618451989435850E-01    0.4585694906768662E-04    0.1090532291505452E-04   -0.2976665839807746E+00   -0.7699465296478323E-02   -0.1084281368632898E-06    0.9163366471859336E-09   -0.1220063113038794E-10    0.3044123980666669E-11   -0.4263877861898635E-09
 -0.3949   0.5266    0.5021527157095965E-01   -0.1905076747784177E-04    0.8847765750394609E-05   -0.2405524964032823E+00    0.1587181069994862E-04    0.5233368991687495E-07    0.9181742068042897E-09   -0.1869521464720192E-10    0.2959075909650388E-11   -0.5463361291146995E-09