 title="result"
 variables="x","y","P","u","v","t","omega","psi","RES1","RES2","RES3","RES4"
zone,j= 49,i= 49,f=point
 -0.3510   0.6138    0.2544990330892641E-01    0.0000000000000000E+00    0.0000000000000000E+00   -0.5000000000000000E+00    0.0000000000000000E+00    0.0000000000000000E+00    0.0000000000000000E+00    0.0000000000000000E+00    0.0000000000000000E+00    0.0000000000000000E+00
 -0.3513   0.6128    0.2596287114641366E-01    0.0000000000000000E+00    0.0000000000000000E+00   -0.4955575777393223E+00    0.3951994968623489E-04    0.0000000000000000E+00    0.0000000000000000E+00    0.0000000000000000E+00    0.0000000000000000E+00    0.0000000000000000E+00
 -0.3522   0.6097    0.2746942238779770E-01    0.0000000000000000E+00    0.0000000000000000E+00   -0.4822515610958440E+00   -0.4250735822560992E-02    0.0000000000000000E+00    0.0000000000000000E+00    0.0000000000000000E+00    0.0000000000000000E+00    0.0000000000000000E+00
 -0.3536   0.6045    0.2990432683742764E-01    0.0000000000000000E+00    0.0000000000000000E+00   -0.4601590851550267E+00   -0.2128681574485212E-01    0.0000000000000000E+00    0.0000000000000000E+00    0.0000000000000000E+00    0.0000000000000000E+00    0.0000000000000000E+00
 -0.3555   0.5974    0.3316979070368294E-01    0.0000000000000000E+00    0.0000000000000000E+00   -0.4294539491238300E+00   -0.5087777639144161E-01    0.0000000000000000E+00    0.0000000000000000E+00    0.0000000000000000E+00    0.0000000000000000E+00    0.0000000000000000E+00
 -0.3580   0.5882    0.3709393696884640E-01    0.0000000000000000E+00    0.0000000000000000E+00   -0.3904752724804183E+00   -0.8555727511319101E-01    0.0000000000000000E+00    0.0000000000000000E+00    0.0000000000000000E+00    0.0000000000000000E+00    0.0000000000000000E+00
 -0.3610   0.5771    0.4142541668258120E-01    0.0000000000000000E+00    0.0000000000000000E+00   -0.3438202385557146E+00   -0.1167432434421784E+00    0.0000000000000000E+00    0.0000000000000000E+00    0.0000000000000000E+00    0.0000000000000000E+00    0.0000000000000000E+00
 -0.3646   0.5641    0.4584461669443055E-01    0.0000000000000000E+00    0.0000000000000000E+00   -0.2904494557900762E+00   -0.1381339678075969E+00    0.0000000000000000E+00    0.0000000000000000E+00    0.0000000000000000E+00    0.0000000000000000E+00    0.0000000000000000E+00
 -0.3686   0.5492    0.4998363859672269E-01    0.0000000000000000E+00    0.0000000000000000E+00   -0.2317838704201398E+00   -0.1483629647492548E+00    0.0000000000000000E+00    0.0000000000000000E+00    0.0000000000000000E+00    0.0000000000000000E+00    0.0000000000000000E+00
 -0.3732   0.5325    0.5345772503824165E-01    0.0000000000000000E+00    0.0000000000000000E+00   -0.1697616418759910E+00   -0.1532868945789109E+00    0.0000000000000000E+00    0.0000000000000000E+00    0.0000000000000000E+00    0.0000000000000000E+00    0.0000000000000000E+00
 -0.3782   0.5141    0.5590850965934644E-01    0.0000000000000000E+00    0.0000000000000000E+00   -0.1068161712186212E+00   -0.1675845260806804E+00    0.0000000000000000E+00    0.0000000000000000E+00    0.0000000000000000E+00    0.0000000000000000E+00    0.0000000000000000E+00
 -0.3836   0.4941    0.5705531961723321E-01    0.0000000000000000E+00    0.0000000000000000E+00   -0.4573839433173342E-01   -0.2137034317557218E+00    0.0000000000000000E+00    0.0000000000000000E+00    0.0000000000000000E+00    0.0000000000000000E+00    0.0000000000000000E+00
 -0.3895   0.4725    0.5673938632005812E-01    0.0000000000000000E+00    0.0000000000000000E+00    0.1059926512455089E-01   -0.3171303297711248E+00    0.0000000000000000E+00    0.0000000000000000E+00    0.0000000000000000E+00    0.0000000000000000E+00    0.0000000000000000E+00
 -0.3958   0.4495    0.5494363435708296E-01    0.0000000000000000E+00    0.0000000000000000E+00    0.5964903957954670E-01   -0.4998344070964353E+00    0.0000000000000000E+00    0.0000000000000000E+00    0.0000000000000000E+00    0.0000000000000000E+00    0.0000000000000000E+00
 -0.4024   0.4251    0.5178070949210348E-01    0.0000000000000000E+00    0.0000000000000000E+00    0.9965834993174680E-01   -0.7760907409393281E+00    0.0000000000000000E+00    0.0000000000000000E+00    0.0000000000000000E+00    0.0000000000000000E+00    0.0000000000000000E+00
 -0.4094   0.3994    0.4746000916193367E-01    0.0000000000000000E+00    0.0000000000000000E+00    0.1300593785841761E+00   -0.1153196747776551E+01    0.0000000000000000E+00    0.0000000000000000E+00    0.0000000000000000E+00    0.0000000000000000E+00    0.0000000000000000E+00
 -0.4167   0.3726    0.4225203231119225E-01    0.0000000000000000E+00    0.0000000000000000E+00    0.1515872454340745E+00   -0.1635065556333443E+01    0.0000000000000000E+00    0.0000000000000000E+00    0.0000000000000000E+00    0.0000000000000000E+00    0.0000000000000000E+00
 -0.4243   0.3448    0.3646239334319904E-01    0.0000000000000000E+00    0.0000000000000000E+00    0.1660126466484271E+00   -0.2224354194431194E+01    0.0000000000000000E+00    0.0000000000000000E+00    0.0000000000000000E+00    0.0000000000000000E+00    0.0000000000000000E+00
 -0.4322   0.3160    0.3041756944617562E-01    0.0000000000000000E+00    0.0000000000000000E+00    0.1755747931903301E+00   -0.2921018932782494E+01    0.0000000000000000E+00    0.0000000000000000E+00    0.0000000000000000E+00    0.0000000000000000E+00    0.0000000000000000E+00
 -0.4402   0.2865    0.2445938050935588E-01    0.0000000000000000E+00    0.0000000000000000E+00    0.1823786278305066E+00   -0.3718701800711167E+01    0.0000000000000000E+00    0.0000000000000000E+00    0.0000000000000000E+00    0.0000000000000000E+00    0.0000000000000000E+00
 -0.4484   0.2562    0.1894208014892293E-01    0.0000000000000000E+00    0.0000000000000000E+00    0.1880152672339875E+00   -0.4601583600076403E+01    0.0000000000000000E+00    0.0000000000000000E+00    0.0000000000000000E+00    0.0000000000000000E+00    0.0000000000000000E+00
 -0.4568   0.2255    0.1422436734925973E-01    0.0000000000000000E+00    0.0000000000000000E+00    0.1934872477421150E+00   -0.5543386647004961E+01    0.0000000000000000E+00    0.0000000000000000E+00    0.0000000000000000E+00    0.0000000000000000E+00    0.0000000000000000E+00
 -0.4653   0.1944    0.1065091045390233E-01    0.0000000000000000E+00    0.0000000000000000E+00    0.1993389299095863E+00   -0.6508738142114230E+01    0.0000000000000000E+00    0.0000000000000000E+00    0.0000000000000000E+00    0.0000000000000000E+00    0.0000000000000000E+00
 -0.4738   0.1629    0.8524233495619309E-02    0.0000000000000000E+00    0.0000000000000000E+00    0.2058392305859238E+00   -0.7456042266638357E+01    0.0000000000000000E+00    0.0000000000000000E+00    0.0000000000000000E+00    0.0000000000000000E+00    0.0000000000000000E+00
 -0.4824   0.1314    0.8072460426195653E-02    0.0000000000000000E+00    0.0000000000000000E+00    0.2131214003738779E+00   -0.8340618066796257E+01    0.0000000000000000E+00    0.0000000000000000E+00    0.0000000000000000E+00    0.0000000000000000E+00    0.0000000000000000E+00
 -0.4910   0.0998    0.9418867870694334E-02    0.0000000000000000E+00    0.0000000000000000E+00    0.2212601127334881E+00   -0.9117176782757232E+01    0.0000000000000000E+00    0.0000000000000000E+00    0.0000000000000000E+00    0.0000000000000000E+00    0.0000000000000000E+00
 -0.4996   0.0684    0.1255657464052418E-01    0.0000000000000000E+00    0.0000000000000000E+00    0.2303041092434919E+00   -0.9741458923108322E+01    0.0000000000000000E+00    0.0000000000000000E+00    0.0000000000000000E+00    0.0000000000000000E+00    0.0000000000000000E+00
 -0.5081   0.0373    0.1732975265274176E-01    0.0000000000000000E+00    0.0000000000000000E+00    0.2402862191163451E+00   -0.1017161735882634E+02    0.0000000000000000E+00    0.0000000000000000E+00    0.0000000000000000E+00    0.0000000000000000E+00    0.0000000000000000E+00
 -0.5164   0.0065    0.2342333684028425E-01    0.0000000000000000E+00    0.0000000000000000E+00    0.2512240916668195E+00   -0.1037032861549716E+02    0.0000000000000000E+00    0.0000000000000000E+00    0.0000000000000000E+00    0.0000000000000000E+00    0.0000000000000000E+00
 -0.5247  -0.0237    0.3036619899604924E-01    0.0000000000000000E+00    0.0000000000000000E+00    0.2631177011148284E+00   -0.1030847117523460E+02    0.0000000000000000E+00    0.0000000000000000E+00    0.0000000000000000E+00    0.0000000000000000E+00    0.0000000000000000E+00
 -0.5327  -0.0532    0.3755554724712665E-01    0.0000000000000000E+00    0.0000000000000000E+00    0.2759461173313361E+00   -0.9970493102864863E+01    0.0000000000000000E+00    0.0000000000000000E+00    0.0000000000000000E+00    0.0000000000000000E+00    0.0000000000000000E+00
 -0.5405  -0.0820    0.4430967183391155E-01    0.0000000000000000E+00    0.0000000000000000E+00    0.2896647530252134E+00   -0.9360492577282919E+01    0.0000000000000000E+00    0.0000000000000000E+00    0.0000000000000000E+00    0.0000000000000000E+00    0.0000000000000000E+00
 -0.5481  -0.1098    0.4994950837948148E-01    0.0000000000000000E+00    0.0000000000000000E+00    0.3042038158375844E+00   -0.8506921097163763E+01    0.0000000000000000E+00    0.0000000000000000E+00    0.0000000000000000E+00    0.0000000000000000E+00    0.0000000000000000E+00
 -0.5554  -0.1366    0.5389741544055858E-01    0.0000000000000000E+00    0.0000000000000000E+00    0.3194682434762596E+00   -0.7463356860278030E+01    0.0000000000000000E+00    0.0000000000000000E+00    0.0000000000000000E+00    0.0000000000000000E+00    0.0000000000000000E+00
 -0.5624  -0.1623    0.5576935085712155E-01    0.0000000000000000E+00    0.0000000000000000E+00    0.3353387350501851E+00   -0.6303546058185058E+01    0.0000000000000000E+00    0.0000000000000000E+00    0.0000000000000000E+00    0.0000000000000000E+00    0.0000000000000000E+00
 -0.5691  -0.1867    0.5543235958648905E-01    0.0000000000000000E+00    0.0000000000000000E+00    0.3516727329071545E+00   -0.5110969060333320E+01    0.0000000000000000E+00    0.0000000000000000E+00    0.0000000000000000E+00    0.0000000000000000E+00    0.0000000000000000E+00
 -0.5753  -0.2097    0.5300856436926357E-01    0.0000000000000000E+00    0.0000000000000000E+00    0.3683037782350940E+00   -0.3965607073931466E+01    0.0000000000000000E+00    0.0000000000000000E+00    0.0000000000000000E+00    0.0000000000000000E+00    0.0000000000000000E+00
 -0.5812  -0.2313    0.4882649344995572E-01    0.0000000000000000E+00    0.0000000000000000E+00    0.3850381287253800E+00   -0.2932012946875872E+01    0.0000000000000000E+00    0.0000000000000000E+00    0.0000000000000000E+00    0.0000000000000000E+00    0.0000000000000000E+00
 -0.5867  -0.2514    0.4334002404705838E-01    0.0000000000000000E+00    0.0000000000000000E+00    0.4016492280162754E+00   -0.2052180682430274E+01    0.0000000000000000E+00    0.0000000000000000E+00    0.0000000000000000E+00    0.0000000000000000E+00    0.0000000000000000E+00
 -0.5917  -0.2697    0.3704343949456811E-01    0.0000000000000000E+00    0.0000000000000000E+00    0.4178731493728748E+00   -0.1344564373668460E+01    0.0000000000000000E+00    0.0000000000000000E+00    0.0000000000000000E+00    0.0000000000000000E+00    0.0000000000000000E+00
 -0.5962  -0.2864    0.3040574065288850E-01    0.0000000000000000E+00    0.0000000000000000E+00    0.4334100884743394E+00   -0.8080547423213474E+00    0.0000000000000000E+00    0.0000000000000000E+00    0.0000000000000000E+00    0.0000000000000000E+00    0.0000000000000000E+00
 -0.6003  -0.3013    0.2383391951852575E-01    0.0000000000000000E+00    0.0000000000000000E+00    0.4479364820811541E+00   -0.4283052946676184E+00    0.0000000000000000E+00    0.0000000000000000E+00    0.0000000000000000E+00    0.0000000000000000E+00    0.0000000000000000E+00
 -0.6038  -0.3143    0.1766200291024642E-01    0.0000000000000000E+00    0.0000000000000000E+00    0.4611284762431142E+00   -0.1835136049052359E+00    0.0000000000000000E+00    0.0000000000000000E+00    0.0000000000000000E+00    0.0000000000000000E+00    0.0000000000000000E+00
 -0.6068  -0.3254    0.1215477984514362E-01    0.0000000000000000E+00    0.0000000000000000E+00    0.4726916210911515E+00   -0.4792856762745232E-01    0.0000000000000000E+00    0.0000000000000000E+00    0.0000000000000000E+00    0.0000000000000000E+00    0.0000000000000000E+00
 -0.6093  -0.3346    0.7513222445081904E-02    0.0000000000000000E+00    0.0000000000000000E+00    0.4823872033108713E+00    0.7384085950766670E-02    0.0000000000000000E+00    0.0000000000000000E+00    0.0000000000000000E+00    0.0000000000000000E+00    0.0000000000000000E+00
 -0.6113  -0.3418    0.3872474353613797E-02    0.0000000000000000E+00    0.0000000000000000E+00    0.4900458168274014E+00    0.1423193942020293E-01    0.0000000000000000E+00    0.0000000000000000E+00    0.0000000000000000E+00    0.0000000000000000E+00    0.0000000000000000E+00
 -0.6127  -0.3469    0.1292778105390194E-02    0.0000000000000000E+00    0.0000000000000000E+00    0.4955642579071170E+00    0.4642296305710219E-02    0.0000000000000000E+00    0.0000000000000000E+00    0.0000000000000000E+00    0.0000000000000000E+00    0.0000000000000000E+00
 -0.6135  -0.3500   -0.2424347655995862E-03    0.0000000000000000E+00    0.0000000000000000E+00    0.4988896575978747E+00   -0.9314783192839893E-04    0.0000000000000000E+00    0.0000000000000000E+00    0.0000000000000000E+00    0.0000000000000000E+00    0.0000000000000000E+00
 -0.6138  -0.3510   -0.7555519638326828E-03    0.0000000000000000E+00    0.0000000000000000E+00    0.5000000000000000E+00    0.0000000000000000E+00    0.0000000000000000E+00    0.0000000000000000E+00    0.0000000000000000E+00    0.0000000000000000E+00    0.0000000000000000E+00
 -0.3500   0.6135    0.2559174806109630E-01    0.0000000000000000E+00    0.0000000000000000E+00   -0.5000000000000000E+00    0.3939101873034994E-04    0.0000000000000000E+00    0.0000000000000000E+00    0.0000000000000000E+00    0.0000000000000000E+00    0.0000000000000000E+00
 -0.3503   0.6125    0.2610409256966119E-01    0.1575178753948351E-06   -0.1575819714073527E-06   -0.4955574662735243E+00   -0.5667164145748327E-03   -0.1028869840015465E-09    0.1036552035827906E-08    0.3662327602640958E-12    0.3384003147144377E-12   -0.9159232291881814E-11
 -0.3511   0.6094    0.2761068970067050E-01    0.4686186659563920E-05   -0.1287217464327086E-05   -0.4822511125188861E+00   -0.4721912707040261E-02   -0.2453035322721840E-08    0.1039095111170230E-08    0.6941213825505804E-12    0.4991770885531821E-12   -0.3704803087575814E-10
 -0.3525   0.6043    0.3004375998383909E-01    0.2156062491355912E-04   -0.2082371318382959E-05   -0.4601580603474213E+00   -0.1906307490008532E-01   -0.1179160545317881E-07    0.1042071742264616E-08    0.6706111360665901E-12    0.5015363124805106E-12   -0.8350228754977485E-10
 -0.3545   0.5971    0.3330137763027736E-01    0.5147881633279496E-04   -0.2196741046231300E-05   -0.4294520919319448E+00   -0.4537890307308667E-01   -0.2806027936823632E-07    0.1045267273777628E-08    0.2516545999364794E-12    0.5366124211647616E-12   -0.1475657981225842E-09
 -0.3570   0.5879    0.3721278875557188E-01    0.8733759270790373E-04   -0.1840256395109572E-05   -0.3904723230442920E+00   -0.7766119345019173E-01   -0.4751063418089313E-07    0.1048591823180761E-08   -0.7105045718436287E-12    0.5608742636997732E-12   -0.2298295755098767E-09
 -0.3600   0.5768    0.4152825695460672E-01    0.1202760760024679E-03   -0.1234184404393958E-05   -0.3438159559856804E+00   -0.1080211839579596E+00   -0.6519859121861521E-07    0.1051359628696791E-08   -0.2192555165203558E-11    0.5831914812182148E-12   -0.3275554827375515E-09
 -0.3636   0.5638    0.4592954702032106E-01    0.1436962413334021E-03   -0.6408046492655649E-06   -0.2904436501945045E+00   -0.1303796800233610E+00   -0.7766008478547916E-07    0.1053090755440481E-08   -0.4043057555414009E-11    0.5884277440304508E-12   -0.4370683051591051E-09
 -0.3676   0.5489    0.5005017277441709E-01    0.1561258266290131E-03   -0.2470471526584944E-06   -0.2317764450213280E+00   -0.1433815020364463E+00   -0.8403786290322925E-07    0.1053523035737108E-08   -0.6013202089039105E-11    0.5611466152855016E-12   -0.5507998016018867E-09
 -0.3722   0.5322    0.5350686260490649E-01    0.1636902162385457E-03   -0.2546938018229198E-06   -0.1697526401024549E+00   -0.1525901927488615E+00   -0.8769005073247936E-07    0.1052787312622733E-08   -0.7863411961503419E-11    0.5497846101987225E-12   -0.6560636756081095E-09
 -0.3772   0.5138    0.5594264476347193E-01    0.1817900795967518E-03   -0.7991463046355661E-06   -0.1068058185482344E+00   -0.1721132872471106E+00   -0.9687414880614875E-07    0.1051044643462715E-08   -0.9406338555284499E-11    0.4795617028485744E-12   -0.7337873642043746E-09
 -0.3826   0.4938    0.5707780381861967E-01    0.2340197480850810E-03   -0.1921175855552196E-05   -0.4572712430029732E-01   -0.2235683523745916E+00   -0.1243294802736700E-06    0.1048299771641559E-08   -0.1055297862984084E-10    0.4832904909601865E-12   -0.7590302414373085E-09
 -0.3885   0.4722    0.5675381274139233E-01    0.3472318587322507E-03   -0.3499826311267190E-05    0.1061081329196994E-01   -0.3316434377511730E+00   -0.1844807145491912E-06    0.1043853744761569E-08   -0.1130300020246722E-10    0.4403317988010969E-12   -0.7015256153763971E-09
 -0.3948   0.4492    0.5495327275469172E-01    0.5446680344595600E-03   -0.5327138813680956E-05    0.5966007462759156E-01   -0.5177832289677651E+00   -0.2898377559255603E-06    0.1035970998222724E-08   -0.1171449742765063E-10    0.3658080782731332E-12   -0.5314809425893685E-09
 -0.4014   0.4248    0.5178835096948938E-01    0.8415273962336037E-03   -0.7202383351653592E-05    0.9966805959765647E-01   -0.7961157505858281E+00   -0.4485357435963051E-06    0.1021752554092314E-08   -0.1185235937173346E-10    0.3261071968019280E-12   -0.2284039485322964E-09
 -0.4084   0.3991    0.4746813870632974E-01    0.1245628719905241E-02   -0.9034287436599662E-05    0.1300671277181628E+00   -0.1173948914057264E+01   -0.6647707366637727E-06    0.9975201983869475E-09   -0.1174829677985656E-10    0.2631297957300660E-12    0.2070442289836549E-09
 -0.4157   0.3723    0.4226287966039533E-01    0.1761103037921795E-02   -0.1081172013696105E-04    0.1515927604947852E+00   -0.1655091604264824E+01   -0.9407555983696026E-06    0.9596469140171759E-09   -0.1137247934712704E-10    0.1977237817918365E-12    0.7459690018474241E-09
 -0.4233   0.3445    0.3647769158305346E-01    0.2390593942697694E-02   -0.1253779607834659E-04    0.1660160738809849E+00   -0.2241823092765780E+01   -0.1277947275609822E-05    0.9055748824426946E-09   -0.1067114452357742E-10    0.7458617057309880E-13    0.1334430271143772E-08
 -0.4311   0.3157    0.3043813876131223E-01    0.3133739660385191E-02   -0.1415414209348860E-04    0.1755765855535557E+00   -0.2933511751583436E+01   -0.1676204302473303E-05    0.8345323321279352E-09   -0.9536267608911686E-11   -0.2062239268241228E-13    0.1907782869181585E-08
 -0.4392   0.2862    0.2448486268799526E-01    0.3983391599337520E-02   -0.1554349161210666E-04    0.1823793341792899E+00   -0.3723158694331093E+01   -0.2131763101696259E-05    0.7478206075217653E-09   -0.7815408042954886E-11   -0.1436628593864953E-12    0.2411078545150325E-08
 -0.4474   0.2560    0.1897091566006624E-01    0.4922341512885252E-02   -0.1655180190566045E-04    0.1880153512937461E+00   -0.4594434073195194E+01   -0.2635461400865876E-05    0.6486057767263187E-09   -0.5297356303612943E-11   -0.2561284517810236E-12    0.2811979084563259E-08
 -0.4558   0.2252    0.1425401799085984E-01    0.5922332607394495E-02   -0.1703836056343253E-04    0.1934870123089972E+00   -0.5520826147641900E+01   -0.3172194966484275E-05    0.5413976350565619E-09   -0.1765247670260095E-11   -0.3556738237264767E-12    0.3101652800915899E-08
 -0.4642   0.1941    0.1067816475183128E-01    0.6945566714200292E-02   -0.1689632612544373E-04    0.1993385332235940E+00   -0.6467091931250807E+01   -0.3721722607780146E-05    0.4317358831551488E-09    0.2954164690649463E-11   -0.4549971510670048E-12    0.3288477887133240E-08
 -0.4728   0.1627    0.8545520332876528E-02    0.7947789196642106E-02   -0.1606799660989036E-04    0.2058387390485354E+00   -0.7392151803166363E+01   -0.4260302180784344E-05    0.3257357647501458E-09    0.8817724328480381E-11   -0.5139499936746006E-12    0.3389110263263273E-08
 -0.4814   0.1311    0.8084047215728611E-02    0.8881631484771455E-02   -0.1452703722577969E-04    0.2131208349771344E+00   -0.8252190211740604E+01   -0.4762502495351116E-05    0.2294930634416659E-09    0.1563474349985938E-10   -0.5389300117286666E-12    0.3420221072504559E-08
 -0.4900   0.0996    0.9416972433350971E-02    0.9699236847598141E-02   -0.1226724811900282E-04    0.2212594763588127E+00   -0.9003091694169287E+01   -0.5202587375758221E-05    0.1485826253699862E-09    0.2295319490031034E-10   -0.5048600426604821E-12    0.3397144475447700E-08
 -0.4985   0.0681    0.1253738465614874E-01    0.1035399344305902E-01   -0.9284378667971846E-05    0.2303033991896224E+00   -0.9602031611579680E+01   -0.5555479375374320E-05    0.8726906003397872E-10    0.3015798721861529E-10   -0.4590564040007905E-12    0.3331644666745848E-08
 -0.5070   0.0370    0.1728948824392426E-01    0.1080200033533586E-01   -0.5586112385601718E-05    0.2402854320784459E+00   -0.1000884423298149E+02   -0.5797507948249561E-05    0.4800224974454981E-10    0.3653671809544790E-10   -0.3457581443377933E-12    0.3232798308563933E-08
 -0.5154   0.0062    0.2335839848525520E-01    0.1100430131841835E-01   -0.1209262306114750E-05    0.2512232256829461E+00   -0.1018807039367452E+02   -0.5907656067862852E-05    0.3070019759243703E-10    0.4135874975830234E-10   -0.1905784557942880E-12    0.3107453244374780E-08
 -0.5236  -0.0240    0.3027352471909088E-01    0.1093075378381464E-01    0.3738138706356734E-05    0.2631167563339422E+00   -0.1011252414290719E+02   -0.5869589789322346E-05    0.3245671526680427E-10    0.4398770236946348E-10   -0.3729308528654940E-13    0.2960747131838803E-08
 -0.5317  -0.0535    0.3743312066492857E-01    0.1056564288276658E-01    0.9045204003307439E-05    0.2759450960788907E+00   -0.9768393897174459E+01   -0.5674748677318597E-05    0.4797181055171684E-10    0.4400013686733928E-10    0.2012903732584448E-12    0.2797090392636647E-08
 -0.5395  -0.0823    0.4415714955217801E-01    0.9913997316064850E-02    0.1437534810775083E-04    0.2896636591585797E+00   -0.9160983710401094E+01   -0.5325690196221033E-05    0.7004547289413132E-10    0.4122657770722071E-10    0.3780725732482892E-12    0.2619567519498989E-08
 -0.5471  -0.1101    0.4976870789427246E-01    0.9006418287083026E-02    0.1929234258333254E-04    0.3042026533932491E+00   -0.8319005152999805E+01   -0.4838791991952809E-05    0.9087700036936042E-10    0.3593375597077397E-10    0.5789119184029801E-12    0.2430842712883297E-08
 -0.5544  -0.1369    0.5369250619129642E-01    0.7899769629807886E-02    0.2332348314756828E-04    0.3194670149095981E+00   -0.7295122931823385E+01   -0.4244553496391036E-05    0.1037350275123750E-09    0.2876238136551024E-10    0.7246425681728397E-12    0.2233210191424084E-08
 -0.5614  -0.1626    0.5554650248888326E-01    0.6671888362887796E-02    0.2606661414442551E-04    0.3353374398324698E+00   -0.6160996822517625E+01   -0.3584866624524907E-05    0.1043079650431267E-09    0.2064637349974419E-10    0.8784778460224629E-12    0.2028749876425984E-08
 -0.5680  -0.1870    0.5519894533331246E-01    0.5410617181327859E-02    0.2728532109727330E-04    0.3516713676392951E+00   -0.4997265911190992E+01   -0.2906988286731744E-05    0.9163137609791150E-10    0.1262162596660232E-10    0.9235390230344365E-12    0.1819574957720449E-08
 -0.5743  -0.2100    0.5277203986963601E-01    0.4199971518158046E-02    0.2697018936441181E-04    0.3683023394477538E+00   -0.3880892653992968E+01   -0.2256215582722879E-05    0.6778864275469587E-10    0.5603961739097940E-11    0.9861417238354875E-12    0.1608267102826133E-08
 -0.5802  -0.2316    0.4859339953176280E-01    0.3107702566407373E-02    0.2532003593278781E-04    0.3850366188265530E+00   -0.2873912409432049E+01   -0.1669008497187266E-05    0.3698164691146033E-10    0.2242372953986660E-12    0.9700157344028071E-12    0.1397772860997626E-08
 -0.5856  -0.2516    0.4311529532853654E-01    0.2177883737238851E-02    0.2267273954590551E-04    0.4016476633458881E+00   -0.2016649564144998E+01   -0.1169169860695487E-05    0.4024842958916253E-11   -0.3285260952168301E-11    0.9794803856877365E-12    0.1190574628467944E-08
 -0.5906  -0.2700    0.3683029068841021E-01    0.1429897448180676E-02    0.1939591854252532E-04    0.4178715674528206E+00   -0.1326883776399097E+01   -0.7670764655099214E-06   -0.2685111161193632E-10   -0.5044249740127071E-11    0.9429540481775689E-12    0.9904475226085729E-09
 -0.5952  -0.2867    0.3020590576202537E-01    0.8625876199950068E-03    0.1580522486221810E-04    0.4334085503297765E+00   -0.8035365934412338E+00   -0.4621815285246901E-06   -0.5287458318403715E-10   -0.5411594783399920E-11    0.9046929871914244E-12    0.8006182678627072E-09
 -0.5992  -0.3016    0.2364820351281861E-01    0.4608337604405044E-03    0.1211031437494064E-04    0.4479350661290066E+00   -0.4327443053633024E+00   -0.2462551488901755E-06   -0.7269674445753438E-10   -0.4857218793841156E-11    0.8790815297921029E-12    0.6246337769938437E-09
 -0.6028  -0.3146    0.1749063185128264E-01    0.2015641963308023E-03    0.8442145776818110E-05    0.4611272631353305E+00   -0.1931598851041856E+00   -0.1070167216949861E-06   -0.8642515175738552E-10   -0.3853795754737988E-11    0.8753206492961851E-12    0.4655434371336753E-09
 -0.6058  -0.3257    0.1199747326104304E-01    0.5736949853653926E-04    0.4917794679897797E-05    0.4726906731790104E+00   -0.5939184873797890E-01   -0.2961902114659101E-07   -0.9501885389617826E-10   -0.2798879183973924E-11    0.8673756157762114E-12    0.3266429028300766E-09
 -0.6083  -0.3349    0.7368478621108336E-02   -0.2607061329027621E-05    0.1805902134714344E-05    0.4823865460704972E+00   -0.2621560878659389E-02    0.2285495397577470E-08   -0.1001228483801797E-09   -0.1971135060729878E-11    0.8788404032289421E-12    0.2110037864919145E-09
 -0.6103  -0.3421    0.3736298772201080E-02   -0.1219325981239042E-04   -0.4243247434811736E-06    0.4900454303940031E+00    0.8388575854960110E-02    0.7118876833143493E-08   -0.1034399391228874E-09   -0.1472055116691351E-11    0.8645312113766956E-12    0.1187294542195905E-09
 -0.6117  -0.3472    0.1157374481875233E-02   -0.4473414167070953E-05   -0.1126485682255605E-05    0.4955640832060045E+00    0.3798335630205207E-02    0.2417514349919925E-08   -0.1071384524067159E-09   -0.1222232384745503E-11    0.9229726358195300E-12    0.5283174483831921E-10
 -0.6125  -0.3503   -0.3801645116329537E-03   -0.1568140096986739E-06   -0.1569938086745529E-06    0.4988896137621242E+00    0.6180943764545240E-03    0.1342545505381908E-09   -0.1113527364933475E-09   -0.6480629292753004E-12    0.6566329511376034E-12    0.1308464567164463E-10
 -0.6128  -0.3513   -0.8934383633558074E-03    0.0000000000000000E+00    0.0000000000000000E+00    0.5000000000000000E+00   -0.9265531327102964E-04    0.0000000000000000E+00    0.0000000000000000E+00    0.0000000000000000E+00    0.0000000000000000E+00    0.0000000000000000E+00
 -0.3469   0.6127    0.2601937853277953E-01    0.0000000000000000E+00    0.0000000000000000E+00   -0.5000000000000000E+00   -0.4249655142191401E-02    0.0000000000000000E+00    0.0000000000000000E+00    0.0000000000000000E+00    0.0000000000000000E+00    0.0000000000000000E+00
 -0.3472   0.6117    0.2652793623637046E-01    0.1286436686012711E-05   -0.4685098540669478E-05   -0.4955558097708863E+00   -0.4720830945655338E-02   -0.2452412232867549E-08    0.1038791126901917E-08    0.5173681307587413E-12    0.6432100945613639E-12   -0.9384313313411108E-11
 -0.3480   0.6086    0.2802891769898081E-01    0.1744250827961623E-04   -0.1744600183156674E-04   -0.4822444620165656E+00   -0.6651020716426027E-02   -0.3889399470362106E-07    0.1039843518582662E-08    0.1539069652972680E-11    0.1616580567326276E-11   -0.3731164249093366E-10
 -0.3494   0.6034    0.3045338927159099E-01    0.7256711065311498E-04   -0.2906003395611155E-04   -0.4601429348502183E+00   -0.1421177287574826E-01   -0.1678981561888338E-06    0.1042020334601768E-08    0.1794215817585432E-11    0.2187973760503503E-11   -0.8331070208700275E-10
 -0.3514   0.5963    0.3368974320158701E-01    0.1742446899043955E-03   -0.3222396642713329E-04   -0.4294247784956924E+00   -0.3171267509973848E-01   -0.4015999851153417E-06    0.1044883282327880E-08    0.4246845930477861E-12    0.2621083905474109E-11   -0.1475211220541839E-09
 -0.3539   0.5871    0.3756615519610162E-01    0.3033850067759994E-03   -0.2791320227986878E-04   -0.3904289892938206E+00   -0.5722164162031425E-01   -0.6910351449236298E-06    0.1047958825620143E-08   -0.2998910147988809E-11    0.2929726773681640E-11   -0.2296121244527161E-09
 -0.3569   0.5760    0.4183635170222189E-01    0.4296864279828132E-03   -0.1974790713681526E-04   -0.3437529628861754E+00   -0.8507618142519248E-01   -0.9661580048168316E-06    0.1050671620886345E-08   -0.8424243941318466E-11    0.3097144068986424E-11   -0.3275681566272670E-09
 -0.3605   0.5629    0.4618608439428069E-01    0.5289497167298178E-03   -0.1134995669876495E-04   -0.2903580511769839E+00   -0.1101273368266434E+00   -0.1173203121697354E-05    0.1052481999122556E-08   -0.1528060490640915E-10    0.3091137588950854E-11   -0.4371089254440186E-09
 -0.3645   0.5481    0.5025309850903133E-01    0.5954137642797374E-03   -0.5904627806874483E-05   -0.2316666681696370E+00   -0.1310427506593142E+00   -0.1299565994917717E-05    0.1053123869360073E-08   -0.2266670184880581E-10    0.2963079868273377E-11   -0.5507763550793854E-09