 title="result"
 variables="x","y","P","u","v","t","omega","psi","RES1","RES2","RES3","RES4"
zone,j= 49,i= 49,f=point
 -0.2534   0.6601    0.2486046369345402E-01    0.0000000000000000E+00    0.0000000000000000E+00   -0.5000000000000000E+00    0.0000000000000000E+00    0.0000000000000000E+00    0.0000000000000000E+00    0.0000000000000000E+00    0.0000000000000000E+00    0.0000000000000000E+00
 -0.2538   0.6592    0.2534670908863949E-01    0.0000000000000000E+00    0.0000000000000000E+00   -0.4951363584529468E+00    0.3344613434739285E-03    0.0000000000000000E+00    0.0000000000000000E+00    0.0000000000000000E+00    0.0000000000000000E+00    0.0000000000000000E+00
 -0.2551   0.6562    0.2675597729042800E-01    0.0000000000000000E+00    0.0000000000000000E+00   -0.4805690993748250E+00   -0.4489776704736457E-02    0.0000000000000000E+00    0.0000000000000000E+00    0.0000000000000000E+00    0.0000000000000000E+00    0.0000000000000000E+00
 -0.2573   0.6514    0.2901090417028952E-01    0.0000000000000000E+00    0.0000000000000000E+00   -0.4563866006270584E+00   -0.3689108821708032E-01    0.0000000000000000E+00    0.0000000000000000E+00    0.0000000000000000E+00    0.0000000000000000E+00    0.0000000000000000E+00
 -0.2603   0.6446    0.3205554178939672E-01    0.0000000000000000E+00    0.0000000000000000E+00   -0.4227975835833949E+00   -0.1115830328439304E+00    0.0000000000000000E+00    0.0000000000000000E+00    0.0000000000000000E+00    0.0000000000000000E+00    0.0000000000000000E+00
 -0.2642   0.6359    0.3579204282853884E-01    0.0000000000000000E+00    0.0000000000000000E+00   -0.3802333451074125E+00   -0.2235690305891571E+00    0.0000000000000000E+00    0.0000000000000000E+00    0.0000000000000000E+00    0.0000000000000000E+00    0.0000000000000000E+00
 -0.2689   0.6254    0.4003445345192105E-01    0.0000000000000000E+00    0.0000000000000000E+00   -0.3294951666999441E+00   -0.3538928106115743E+00    0.0000000000000000E+00    0.0000000000000000E+00    0.0000000000000000E+00    0.0000000000000000E+00    0.0000000000000000E+00
 -0.2744   0.6130    0.4449741494524820E-01    0.0000000000000000E+00    0.0000000000000000E+00   -0.2719154376198499E+00   -0.4770627652235698E+00    0.0000000000000000E+00    0.0000000000000000E+00    0.0000000000000000E+00    0.0000000000000000E+00    0.0000000000000000E+00
 -0.2807   0.5989    0.4880499491752656E-01    0.0000000000000000E+00    0.0000000000000000E+00   -0.2094661668021278E+00   -0.5698866813788834E+00    0.0000000000000000E+00    0.0000000000000000E+00    0.0000000000000000E+00    0.0000000000000000E+00    0.0000000000000000E+00
 -0.2877   0.5832    0.5252826927379995E-01    0.0000000000000000E+00    0.0000000000000000E+00   -0.1447361058127509E+00   -0.6204937514938799E+00    0.0000000000000000E+00    0.0000000000000000E+00    0.0000000000000000E+00    0.0000000000000000E+00    0.0000000000000000E+00
 -0.2954   0.5658    0.5524663654920111E-01    0.0000000000000000E+00    0.0000000000000000E+00   -0.8073032939609953E-01   -0.6355827624834984E+00    0.0000000000000000E+00    0.0000000000000000E+00    0.0000000000000000E+00    0.0000000000000000E+00    0.0000000000000000E+00
 -0.3039   0.5468    0.5662618910354537E-01    0.0000000000000000E+00    0.0000000000000000E+00   -0.2051605751048536E-01   -0.6417679872748590E+00    0.0000000000000000E+00    0.0000000000000000E+00    0.0000000000000000E+00    0.0000000000000000E+00    0.0000000000000000E+00
 -0.3130   0.5264    0.5648677185008707E-01    0.0000000000000000E+00    0.0000000000000000E+00    0.3319898994641812E-01   -0.6782363404615082E+00    0.0000000000000000E+00    0.0000000000000000E+00    0.0000000000000000E+00    0.0000000000000000E+00    0.0000000000000000E+00
 -0.3227   0.5045    0.5482801636317896E-01    0.0000000000000000E+00    0.0000000000000000E+00    0.7845497761302729E-01   -0.7834813945534330E+00    0.0000000000000000E+00    0.0000000000000000E+00    0.0000000000000000E+00    0.0000000000000000E+00    0.0000000000000000E+00
 -0.3330   0.4814    0.5180123829657789E-01    0.0000000000000000E+00    0.0000000000000000E+00    0.1143170052746886E+00   -0.9842009349838140E+00    0.0000000000000000E+00    0.0000000000000000E+00    0.0000000000000000E+00    0.0000000000000000E+00    0.0000000000000000E+00
 -0.3438   0.4571    0.4765043808849432E-01    0.0000000000000000E+00    0.0000000000000000E+00    0.1409803717329534E+00   -0.1292976330547229E+01    0.0000000000000000E+00    0.0000000000000000E+00    0.0000000000000000E+00    0.0000000000000000E+00    0.0000000000000000E+00
 -0.3551   0.4318    0.4265855934021660E-01    0.0000000000000000E+00    0.0000000000000000E+00    0.1596528204398227E+00   -0.1713301321154643E+01    0.0000000000000000E+00    0.0000000000000000E+00    0.0000000000000000E+00    0.0000000000000000E+00    0.0000000000000000E+00
 -0.3668   0.4054    0.3712008806750888E-01    0.0000000000000000E+00    0.0000000000000000E+00    0.1722096067087923E+00   -0.2245042827182693E+01    0.0000000000000000E+00    0.0000000000000000E+00    0.0000000000000000E+00    0.0000000000000000E+00    0.0000000000000000E+00
 -0.3789   0.3782    0.3133520213166201E-01    0.0000000000000000E+00    0.0000000000000000E+00    0.1807166093094781E+00   -0.2885648833647157E+01    0.0000000000000000E+00    0.0000000000000000E+00    0.0000000000000000E+00    0.0000000000000000E+00    0.0000000000000000E+00
 -0.3914   0.3502    0.2561312444246809E-01    0.0000000000000000E+00    0.0000000000000000E+00    0.1869966075070732E+00   -0.3627912402080745E+01    0.0000000000000000E+00    0.0000000000000000E+00    0.0000000000000000E+00    0.0000000000000000E+00    0.0000000000000000E+00
 -0.4041   0.3216    0.2027461078937130E-01    0.0000000000000000E+00    0.0000000000000000E+00    0.1923885895532151E+00   -0.4457325407812603E+01    0.0000000000000000E+00    0.0000000000000000E+00    0.0000000000000000E+00    0.0000000000000000E+00    0.0000000000000000E+00
 -0.4171   0.2925    0.1564803601895324E-01    0.0000000000000000E+00    0.0000000000000000E+00    0.1977302728359113E+00   -0.5351030966639568E+01    0.0000000000000000E+00    0.0000000000000000E+00    0.0000000000000000E+00    0.0000000000000000E+00    0.0000000000000000E+00
 -0.4302   0.2630    0.1205560846011874E-01    0.0000000000000000E+00    0.0000000000000000E+00    0.2034808642556890E+00   -0.6278675970141756E+01    0.0000000000000000E+00    0.0000000000000000E+00    0.0000000000000000E+00    0.0000000000000000E+00    0.0000000000000000E+00
 -0.4435   0.2332    0.9791101133195821E-02    0.0000000000000000E+00    0.0000000000000000E+00    0.2098729853571258E+00   -0.7204516415243773E+01    0.0000000000000000E+00    0.0000000000000000E+00    0.0000000000000000E+00    0.0000000000000000E+00    0.0000000000000000E+00
 -0.4568   0.2034    0.9093280174398260E-02    0.0000000000000000E+00    0.0000000000000000E+00    0.2170265404764855E+00   -0.8089725453349264E+01    0.0000000000000000E+00    0.0000000000000000E+00    0.0000000000000000E+00    0.0000000000000000E+00    0.0000000000000000E+00
 -0.4701   0.1735    0.1011981691921227E-01    0.0000000000000000E+00    0.0000000000000000E+00    0.2250118029917867E+00   -0.8894085542744962E+01    0.0000000000000000E+00    0.0000000000000000E+00    0.0000000000000000E+00    0.0000000000000000E+00    0.0000000000000000E+00
 -0.4833   0.1437    0.1292362301256795E-01    0.0000000000000000E+00    0.0000000000000000E+00    0.2338765020775414E+00   -0.9576807131326964E+01    0.0000000000000000E+00    0.0000000000000000E+00    0.0000000000000000E+00    0.0000000000000000E+00    0.0000000000000000E+00
 -0.4964   0.1143    0.1743189671350460E-01    0.0000000000000000E+00    0.0000000000000000E+00    0.2436542063298387E+00   -0.1009697441062979E+02    0.0000000000000000E+00    0.0000000000000000E+00    0.0000000000000000E+00    0.0000000000000000E+00    0.0000000000000000E+00
 -0.5094   0.0851    0.2342827538982219E-01    0.0000000000000000E+00    0.0000000000000000E+00    0.2543647353483354E+00   -0.1041458685117777E+02    0.0000000000000000E+00    0.0000000000000000E+00    0.0000000000000000E+00    0.0000000000000000E+00    0.0000000000000000E+00
 -0.5221   0.0565    0.3054203424898864E-01    0.0000000000000000E+00    0.0000000000000000E+00    0.2660115784002574E+00   -0.1049328555802220E+02    0.0000000000000000E+00    0.0000000000000000E+00    0.0000000000000000E+00    0.0000000000000000E+00    0.0000000000000000E+00
 -0.5346   0.0286    0.3825241649919825E-01    0.0000000000000000E+00    0.0000000000000000E+00    0.2785784338887886E+00   -0.1030535739932135E+02    0.0000000000000000E+00    0.0000000000000000E+00    0.0000000000000000E+00    0.0000000000000000E+00    0.0000000000000000E+00
 -0.5467   0.0013    0.4591883103428287E-01    0.0000000000000000E+00    0.0000000000000000E+00    0.2920259814594623E+00   -0.9838658822714478E+01    0.0000000000000000E+00    0.0000000000000000E+00    0.0000000000000000E+00    0.0000000000000000E+00    0.0000000000000000E+00
 -0.5585  -0.0250    0.5284438523604386E-01    0.0000000000000000E+00    0.0000000000000000E+00    0.3062896814937300E+00   -0.9103733713955133E+01    0.0000000000000000E+00    0.0000000000000000E+00    0.0000000000000000E+00    0.0000000000000000E+00    0.0000000000000000E+00
 -0.5698  -0.0504    0.5836980906334722E-01    0.0000000000000000E+00    0.0000000000000000E+00    0.3212790927260450E+00   -0.8138339733909072E+01    0.0000000000000000E+00    0.0000000000000000E+00    0.0000000000000000E+00    0.0000000000000000E+00    0.0000000000000000E+00
 -0.5806  -0.0747    0.6197939336790924E-01    0.0000000000000000E+00    0.0000000000000000E+00    0.3368786278630533E+00   -0.7006480484593304E+01    0.0000000000000000E+00    0.0000000000000000E+00    0.0000000000000000E+00    0.0000000000000000E+00    0.0000000000000000E+00
 -0.5909  -0.0978    0.6338859409813687E-01    0.0000000000000000E+00    0.0000000000000000E+00    0.3529488636501209E+00   -0.5790639141787726E+01    0.0000000000000000E+00    0.0000000000000000E+00    0.0000000000000000E+00    0.0000000000000000E+00    0.0000000000000000E+00
 -0.6006  -0.1196    0.6258373973054644E-01    0.0000000000000000E+00    0.0000000000000000E+00    0.3693268345559986E+00   -0.4578625370366063E+01    0.0000000000000000E+00    0.0000000000000000E+00    0.0000000000000000E+00    0.0000000000000000E+00    0.0000000000000000E+00
 -0.6097  -0.1401    0.5980077597668639E-01    0.0000000000000000E+00    0.0000000000000000E+00    0.3858237775097400E+00   -0.3449068135658670E+01    0.0000000000000000E+00    0.0000000000000000E+00    0.0000000000000000E+00    0.0000000000000000E+00    0.0000000000000000E+00
 -0.6181  -0.1590    0.5545415642813623E-01    0.0000000000000000E+00    0.0000000000000000E+00    0.4022201202030344E+00   -0.2460192187799980E+01    0.0000000000000000E+00    0.0000000000000000E+00    0.0000000000000000E+00    0.0000000000000000E+00    0.0000000000000000E+00
 -0.6259  -0.1764    0.5004442129372082E-01    0.0000000000000000E+00    0.0000000000000000E+00    0.4182600701264135E+00   -0.1644979060842550E+01    0.0000000000000000E+00    0.0000000000000000E+00    0.0000000000000000E+00    0.0000000000000000E+00    0.0000000000000000E+00
 -0.6329  -0.1922    0.4407519381081729E-01    0.0000000000000000E+00    0.0000000000000000E+00    0.4336507816845546E+00   -0.1012779824806445E+01    0.0000000000000000E+00    0.0000000000000000E+00    0.0000000000000000E+00    0.0000000000000000E+00    0.0000000000000000E+00
 -0.6392  -0.2063    0.3799847940712781E-01    0.0000000000000000E+00    0.0000000000000000E+00    0.4480716358364428E+00   -0.5551398052607806E+00    0.0000000000000000E+00    0.0000000000000000E+00    0.0000000000000000E+00    0.0000000000000000E+00    0.0000000000000000E+00
 -0.6447  -0.2186    0.3219140626032277E-01    0.0000000000000000E+00    0.0000000000000000E+00    0.4611959890101058E+00   -0.2523541063722998E+00    0.0000000000000000E+00    0.0000000000000000E+00    0.0000000000000000E+00    0.0000000000000000E+00    0.0000000000000000E+00
 -0.6493  -0.2292    0.2695452152263524E-01    0.0000000000000000E+00    0.0000000000000000E+00    0.4727214866638585E+00   -0.7817636625237190E-01    0.0000000000000000E+00    0.0000000000000000E+00    0.0000000000000000E+00    0.0000000000000000E+00    0.0000000000000000E+00
 -0.6532  -0.2378    0.2251672781593166E-01    0.0000000000000000E+00    0.0000000000000000E+00    0.4823991682960181E+00   -0.1338376444562174E-02    0.0000000000000000E+00    0.0000000000000000E+00    0.0000000000000000E+00    0.0000000000000000E+00    0.0000000000000000E+00
 -0.6562  -0.2446    0.1903319060688095E-01    0.0000000000000000E+00    0.0000000000000000E+00    0.4900504033931036E+00    0.1395250505160253E-01    0.0000000000000000E+00    0.0000000000000000E+00    0.0000000000000000E+00    0.0000000000000000E+00    0.0000000000000000E+00
 -0.6584  -0.2495    0.1657438823933819E-01    0.0000000000000000E+00    0.0000000000000000E+00    0.4955659198647379E+00    0.5359769119915881E-02    0.0000000000000000E+00    0.0000000000000000E+00    0.0000000000000000E+00    0.0000000000000000E+00    0.0000000000000000E+00
 -0.6597  -0.2524    0.1511915104175634E-01    0.0000000000000000E+00    0.0000000000000000E+00    0.4988900510654000E+00   -0.5809386746703747E-04    0.0000000000000000E+00    0.0000000000000000E+00    0.0000000000000000E+00    0.0000000000000000E+00    0.0000000000000000E+00
 -0.6601  -0.2534    0.1463408554374850E-01    0.0000000000000000E+00    0.0000000000000000E+00    0.5000000000000000E+00    0.0000000000000000E+00    0.0000000000000000E+00    0.0000000000000000E+00    0.0000000000000000E+00    0.0000000000000000E+00    0.0000000000000000E+00
 -0.2524   0.6597    0.2507854372999850E-01    0.0000000000000000E+00    0.0000000000000000E+00   -0.5000000000000000E+00    0.3346738172587120E-03    0.0000000000000000E+00    0.0000000000000000E+00    0.0000000000000000E+00    0.0000000000000000E+00    0.0000000000000000E+00
 -0.2529   0.6587    0.2556373170039105E-01    0.3523030892281758E-07   -0.3509333497899356E-07   -0.4951362166452989E+00   -0.6419053161370931E-03   -0.1109138390798074E-10    0.2005329609506591E-09   -0.7751039393655290E-12   -0.7542898597390213E-12    0.1124799743363464E-10
 -0.2542   0.6558    0.2697458813234884E-01    0.6154602008211856E-05   -0.1994334210301407E-05   -0.4805685244958242E+00   -0.7430060600489229E-02   -0.3032489160316926E-08    0.1953062585789700E-09   -0.1383669220866857E-11   -0.1115255457428965E-11    0.4491152935659493E-10
 -0.2563   0.6509    0.2923200454080895E-01    0.3943989572175498E-04   -0.4613494640372729E-05   -0.4563852579837017E+00   -0.3700561038334963E-01   -0.2117039115472048E-07    0.1904699922089526E-09   -0.1306088267052918E-11   -0.1092039653149968E-11    0.1007528314250772E-09
 -0.2594   0.6441    0.3227064391295918E-01    0.1158942233481108E-03   -0.6271091151380814E-05   -0.4227950659304606E+00   -0.1051195496113999E+00   -0.6264547109370703E-07    0.1873201281588077E-09   -0.9211832685540600E-12   -0.1115284947728057E-11    0.1799666943247402E-09
 -0.2632   0.6355    0.3599055381842270E-01    0.2318364487284014E-03   -0.6700724635278744E-05   -0.3802292072547457E+00   -0.2096664695290471E+00   -0.1254310979665063E-06    0.1853862879180879E-09   -0.4586608870482678E-12   -0.1086478129685986E-11    0.2829048939556600E-09
 -0.2679   0.6249    0.4020723530026302E-01    0.3680884741463864E-03   -0.5916374914491653E-05   -0.3294890214969454E+00   -0.3338728957830032E+00   -0.1989207293480287E-06    0.1844544742640730E-09   -0.1673799987500502E-12   -0.1081013750736659E-11    0.4116580409885273E-09
 -0.2734   0.6126    0.4463756898625054E-01    0.4981755198874661E-03   -0.4387787012689150E-05   -0.2719070844316981E+00   -0.4537145099890253E+00   -0.2688814946981924E-06    0.1835287043866485E-09   -0.2592925874012053E-12   -0.1033988866749880E-11    0.5693495605529897E-09
 -0.2797   0.5985    0.4890900358311486E-01    0.5976992543920688E-03   -0.2553865340074859E-05   -0.2094557024054932E+00   -0.5468245268792945E+00   -0.3221176552653781E-06    0.1814046439105321E-09   -0.8498826642444612E-12   -0.1031182084165749E-11    0.7597096562950156E-09
 -0.2867   0.5827    0.5259643022206807E-01    0.6539849108017032E-03   -0.1007155282727984E-05   -0.1447239616430517E+00   -0.6013718601786340E+00   -0.3518800499145582E-06    0.1763779599803228E-09   -0.1967252749590642E-11   -0.1007961943078062E-11    0.9865333827629996E-09
 -0.2945   0.5653    0.5528303152262731E-01    0.6737845117504659E-03   -0.2091506101173120E-06   -0.8071720906808325E-01   -0.6232809698117877E+00   -0.3618270183719090E-06    0.1665024023603939E-09   -0.3581569069099899E-11   -0.1006319810467615E-11    0.1250063955127168E-08
 -0.3029   0.5464    0.5663757166433528E-01    0.6847956280574053E-03   -0.4580664559603249E-06   -0.2050280319412339E-01   -0.6376680885381910E+00   -0.3669455842266485E-06    0.1494302719756702E-09   -0.5615742246223299E-11   -0.1005894586375566E-11    0.1541947861061210E-08
 -0.3120   0.5259    0.5648079783091361E-01    0.7280612737494048E-03   -0.1671987234876949E-05    0.3321153990245088E-01   -0.6820272256360609E+00   -0.3893518251466289E-06    0.1228208377015982E-09   -0.7905414170505942E-11   -0.9355623914464317E-12    0.1840677416042880E-08
 -0.3217   0.5041    0.5481152665892233E-01    0.8441092206802892E-03   -0.3531636162839872E-05    0.7846609791564386E-01   -0.7935740832848505E+00   -0.4508690906043968E-06    0.8486598229717757E-10   -0.1022447057574816E-10   -0.9667162903514992E-12    0.2109408675510238E-08
 -0.3320   0.4810    0.5177950195647214E-01    0.1061247196868858E-02   -0.5619935992717446E-05    0.1143261642455872E+00   -0.9985026046608528E+00   -0.5666938074688581E-06    0.3498297138082584E-10   -0.1229983476180863E-10   -0.8931813622048423E-12    0.2300671660127040E-08
 -0.3428   0.4567    0.4762731468340179E-01    0.1392969730306810E-02   -0.7683844515919148E-05    0.1409873006617913E+00   -0.1309443500029254E+01   -0.7440466795454892E-06   -0.2589646379280719E-10   -0.1386610271048028E-10   -0.8987116606462564E-12    0.2368419287079870E-08
 -0.3541   0.4313    0.4263693821968270E-01    0.1843086715829578E-02   -0.9622894218347546E-05    0.1596575557284186E+00   -0.1730024663765218E+01   -0.9849560341878222E-06   -0.9539579196027326E-10   -0.1467163196489096E-10   -0.7754213937616328E-12    0.2284508807820496E-08
 -0.3658   0.4050    0.3710200172993584E-01    0.2411394372889272E-02   -0.1144052424213441E-04    0.1722124618592105E+00   -0.2259997934144764E+01   -0.1289320366961697E-05   -0.1702824964366911E-09   -0.1443249686428061E-10   -0.7288475378786075E-12    0.2050407756776229E-08
 -0.3780   0.3777    0.3132165234289501E-01    0.3094960824066342E-02   -0.1310200518377270E-04    0.1807180623663548E+00   -0.2896436954817661E+01   -0.1655611332643333E-05   -0.2468759086049488E-09   -0.1282254510903691E-10   -0.6839737110020394E-12    0.1697640382436472E-08
 -0.3904   0.3498    0.2560392776891042E-01    0.3885812825255035E-02   -0.1453669463110614E-04    0.1869971504011317E+00   -0.3631652374693888E+01   -0.2079599897610797E-05   -0.3215256186295257E-09   -0.9553732804867821E-11   -0.5908745714933161E-12    0.1276038823216918E-08
 -0.4032   0.3212    0.2026844710044208E-01    0.4768194959775811E-02   -0.1562597734892698E-04    0.1923886126724345E+00   -0.4450715837434053E+01   -0.2552901475812789E-05   -0.3906466920777785E-09   -0.4441315371028765E-11   -0.5018763182818020E-12    0.8360599759163131E-09
 -0.4161   0.2920    0.1564267592276265E-01    0.5717515825613681E-02   -0.1626603287232299E-04    0.1977300250893050E+00   -0.5330543654030766E+01   -0.3062364564683965E-05   -0.4505302277080236E-09    0.2467866189181933E-11   -0.4124478536482457E-12    0.4171113610756949E-09
 -0.4292   0.2626    0.1204820152409636E-01    0.6701304503691187E-02   -0.1636605217229878E-04    0.2034804749627072E+00   -0.6240824019376046E+01   -0.3590616261673232E-05   -0.4971999791048010E-09    0.1087045731207326E-10   -0.3413797022844278E-12    0.4292854570084326E-10
 -0.4425   0.2328    0.9778440375714443E-02    0.7681476549225479E-02   -0.1587891254701886E-04    0.2098725086717915E+00   -0.7146153938721620E+01   -0.4117225576909929E-05   -0.5266438500572956E-09    0.2025035694686039E-10   -0.2651906472195265E-12   -0.2768667630229094E-09
 -0.4558   0.2029    0.9071959583598856E-02    0.8616798415051342E-02   -0.1477016807788650E-04    0.2170259929764133E+00   -0.8008323807931662E+01   -0.4620077064194679E-05   -0.5351390094943120E-09    0.2995320658172318E-10   -0.1663530424522719E-12   -0.5401897869988792E-09
 -0.4691   0.1731    0.1008628913815927E-01    0.9464683961524032E-02   -0.1302071539244282E-04    0.2250111858514160E+00   -0.8787994855177988E+01   -0.5076275682794024E-05   -0.5199475849870794E-09    0.3929317982098723E-10   -0.1355443535189238E-12   -0.7491866372069667E-09
 -0.4823   0.1433    0.1287416094013491E-01    0.1018206897681534E-01   -0.1059458798616638E-04    0.2338758114516924E+00   -0.9445498694362179E+01   -0.5462680993233964E-05   -0.4796575567289629E-09    0.4767580774611702E-10   -0.8414796637268296E-13   -0.9082025747772504E-09
 -0.4955   0.1138    0.1736256955570843E-01    0.1072589664770301E-01   -0.7455763091501947E-05    0.2436534376469071E+00   -0.9941316634827810E+01   -0.5756093173224826E-05   -0.4146233668900212E-09    0.5457001517328308E-10   -0.6863259960354640E-13   -0.1021540088630424E-08
 -0.5084   0.0847    0.2333500025031232E-01    0.1105424273690580E-01   -0.3571958334332685E-05    0.2543638851487939E+00   -0.1023711993784688E+02   -0.5933933110816561E-05   -0.3269522074952902E-09    0.5961786619934628E-10   -0.6358108484150193E-13   -0.1093629277415520E-08
 -0.5212   0.0561    0.3042084224899977E-01    0.1112920953307667E-01    0.1032562107471131E-05    0.2660106452500374E+00   -0.1029847334752141E+02   -0.5975708441804063E-05   -0.2202831029564367E-09    0.6260042484385053E-10   -0.1033747740186719E-12   -0.1129138347058523E-08
 -0.5336   0.0281    0.3809993298004384E-01    0.1092219571471890E-01    0.6241849399824938E-05    0.2785774187405856E+00   -0.1009965003470459E+02   -0.5865946122775226E-05   -0.9986631140102009E-10    0.6336253743910447E-10   -0.1312387698515494E-12   -0.1131741436677380E-08
 -0.5457   0.0009    0.4573298799176821E-01    0.1042113269022005E-01    0.1179503341205451E-04    0.2920248873738223E+00   -0.9630256421951959E+01   -0.5597991178214754E-05    0.2794534395555992E-10    0.6191414048117849E-10   -0.1749225764235973E-12   -0.1106509720655291E-08
 -0.5575  -0.0255    0.5262514475793753E-01    0.9637868579650523E-02    0.1728846490703552E-04    0.3062885125810806E+00   -0.8901875343172973E+01   -0.5178118303460426E-05    0.1562181495273762E-09    0.5838973748950593E-10   -0.1845745778439323E-12   -0.1057485996339147E-08
 -0.5688  -0.0508    0.5811971120320366E-01    0.8612782738718888E-02    0.2220830085895016E-04    0.3212778524135866E+00   -0.7952198308619060E+01   -0.4627912987168064E-05    0.2781170918564335E-09    0.5308192774222675E-10   -0.2402245069532682E-12   -0.9895776056229044E-09
 -0.5796  -0.0751    0.6170357939379953E-01    0.7413640474690270E-02    0.2603740750397411E-04    0.3368773170750766E+00   -0.6843809814581783E+01   -0.3983822742876940E-05    0.3877821050379815E-09    0.4645345219600472E-10   -0.2664812814856532E-12   -0.9070824820434087E-09
 -0.5899  -0.0982    0.6309426314333715E-01    0.6127366555610229E-02    0.2837146800012826E-04    0.3529474800445264E+00   -0.5656634362974836E+01   -0.3292575535817460E-05    0.4811086529166175E-09    0.3909877976937537E-10   -0.2653155473097968E-12   -0.8148308538319382E-09
 -0.5996  -0.1201    0.6227904333467398E-01    0.4846260694258050E-02    0.2902965099849078E-04    0.3693253742573239E+00   -0.4475279805671137E+01   -0.2603931869726156E-05    0.5562918806156780E-09    0.3162192729888602E-10   -0.2700617507400693E-12   -0.7178069336838400E-09
 -0.6087  -0.1405    0.5949360446658890E-01    0.3652852810704733E-02    0.2808315071314692E-04    0.3858222403759907E+00   -0.3375318275967024E+01   -0.1962301127426497E-05    0.6135926766681621E-09    0.2455555203617621E-10   -0.2570443857763394E-12   -0.6192542641864085E-09
 -0.6171  -0.1594    0.5515108616809420E-01    0.2608225530466273E-02    0.2581410989185005E-04    0.4022185182575446E+00   -0.2412615677377837E+01   -0.1400670045723911E-05    0.6549263700805774E-09    0.1828320828067831E-10   -0.2866179515947920E-12   -0.5229916517218713E-09
 -0.6249  -0.1769    0.4975026658053067E-01    0.1746984663005730E-02    0.2260595317560832E-04    0.4182584365715462E+00   -0.1618868857634337E+01   -0.9376067239254010E-06    0.6830526422252348E-09    0.1300480556576389E-10   -0.2673555821175455E-12   -0.4314563584878472E-09
 -0.6319  -0.1926    0.4379302541476974E-01    0.1078953950903898E-02    0.1883202186365271E-04    0.4336491758959732E+00   -0.1003045682763077E+01   -0.5784983129380501E-06    0.7009482994035920E-09    0.8768642062451093E-11   -0.2664951592734610E-12   -0.3459063382948990E-09
 -0.6382  -0.2067    0.3773014550256205E-01    0.5952162485794130E-03    0.1477409611880075E-04    0.4480701395088557E+00   -0.5569868579733053E+00   -0.3184333313919490E-06    0.7113626077082102E-09    0.5532403094671290E-11   -0.2624150896579636E-12   -0.2682709592666255E-09
 -0.6437  -0.2191    0.3193794211538018E-01    0.2749230266470519E-03    0.1061435430862681E-04    0.4611946913054842E+00   -0.2613927245927805E+00   -0.1463494859987945E-06    0.7166646373568675E-09    0.3204748966201265E-11   -0.2930017339863866E-12   -0.1992887799229237E-09
 -0.6484  -0.2296    0.2671634374226443E-01    0.9012988401037070E-04    0.6509530823420667E-05    0.4727204613274105E+00   -0.9038011404320956E-01   -0.4708492783274797E-07    0.7187750256099079E-09    0.1682778916212158E-11   -0.2918672248330978E-12   -0.1395574177054382E-09
 -0.6522  -0.2383    0.2229285246006730E-01    0.7462106994927243E-05    0.2756907883091773E-05    0.4823984508921204E+00   -0.1274336229306191E-01   -0.2983909160619866E-08    0.7193704009214597E-09    0.8449907440422066E-12   -0.3393622188818668E-12   -0.8999320993269277E-10
 -0.6553  -0.2451    0.1881974997299886E-01   -0.1121947847915928E-04   -0.7854339135735929E-07    0.4900499789103105E+00    0.6801312206051199E-02    0.6723162753980168E-08    0.7196972301037348E-09    0.5156604310219137E-12   -0.3399175472346139E-12   -0.5076024626668452E-10
 -0.6574  -0.2499    0.1636266572841915E-01   -0.4955726457860016E-05   -0.1189873663295604E-05    0.4955657273330266E+00    0.3963243052059501E-02    0.2713618504660432E-08    0.7207711935977579E-09    0.4405763948112096E-12   -0.3617778819575701E-12   -0.2255048231480927E-10
 -0.6587  -0.2529    0.1490506234314604E-01   -0.2026732365033562E-06   -0.2026969385832486E-06    0.4988900027094770E+00    0.7044966677619022E-03    0.1724764496506693E-09    0.7223846835383713E-09    0.2461969430406219E-12   -0.2478993572918586E-12   -0.5989310555756105E-11
 -0.6592  -0.2538    0.1441975508629095E-01    0.0000000000000000E+00    0.0000000000000000E+00    0.5000000000000000E+00   -0.5777004902215879E-04    0.0000000000000000E+00    0.0000000000000000E+00    0.0000000000000000E+00    0.0000000000000000E+00    0.0000000000000000E+00
 -0.2495   0.6584    0.2575077875931170E-01    0.0000000000000000E+00    0.0000000000000000E+00   -0.5000000000000000E+00   -0.4486212208763029E-02    0.0000000000000000E+00    0.0000000000000000E+00    0.0000000000000000E+00    0.0000000000000000E+00    0.0000000000000000E+00
 -0.2499   0.6574    0.2622803861478141E-01    0.1992948437520997E-05   -0.6152169614730718E-05   -0.4951341176640473E+00   -0.7428746870536260E-02   -0.3030925319240126E-08    0.1956640162392720E-09   -0.1078616254472642E-11   -0.1468950395350221E-11    0.1105442430301973E-10
 -0.2512   0.6545    0.2762936943871494E-01    0.3131057274943353E-04   -0.3131480925433028E-04   -0.4805600483156616E+00   -0.1602598425681314E-01   -0.6212075531448647E-07    0.1935931276397795E-09   -0.3162987992182120E-11   -0.3578267890325115E-11    0.4487157390445362E-10
 -0.2534   0.6496    0.2988179972429965E-01    0.1519397557519600E-03   -0.6716582857352325E-04   -0.4563656401678294E+00   -0.3814927309328671E-01   -0.3313634851024945E-06    0.1902450905144626E-09   -0.3991945662917828E-11   -0.4419419691314985E-11    0.1008631563687024E-09
 -0.2564   0.6428    0.3290063719559625E-01    0.4228375537507393E-03   -0.9327738035761034E-04   -0.4227586355604441E+00   -0.8886256192978248E-01   -0.9420809339163671E-06    0.1872521998569354E-09   -0.3328587405704297E-11   -0.4652708773811298E-11    0.1798440493749887E-09
 -0.2603   0.6342    0.3657410648284243E-01    0.8434892271934288E-03   -0.1010124077923340E-03   -0.3801696875166793E+00   -0.1727021682914629E+00   -0.1881275418144054E-05    0.1852011113911978E-09   -0.2126448322981034E-11   -0.4571613920756334E-11    0.2826062196759072E-09
 -0.2650   0.6236    0.4071818953745741E-01    0.1351268350247544E-02   -0.9111079550664142E-04   -0.3294007687829663E+00   -0.2793502357195483E+00   -0.3001556791404979E-05    0.1838973695544865E-09   -0.1421092410414104E-11   -0.4361028899113606E-11    0.4113881180156653E-09
 -0.2705   0.6113    0.4505543700993001E-01    0.1850484842237101E-02   -0.6896188479803194E-04   -0.2717869106212771E+00   -0.3893689400739064E+00   -0.4088693549101475E-05    0.1825737686034223E-09   -0.2085179251487546E-11   -0.4087216676218475E-11    0.5689828747046377E-09
 -0.2767   0.5972    0.4922262960349232E-01    0.2249212965040967E-02   -0.4196646764174847E-04   -0.2093045678532101E+00   -0.4829307494495279E+00   -0.4940636575772711E-05    0.1799710207250893E-09   -0.4605059389373167E-11   -0.3835600240198467E-11    0.7594334883176401E-09