 title="result"
 variables="x","y","P","u","v","t","omega","psi","RES1","RES2","RES3","RES4"
zone,j= 49,i= 49,f=point
 -0.4450   0.5495    0.2410917386614993E-01    0.0000000000000000E+00    0.0000000000000000E+00   -0.5000000000000000E+00    0.0000000000000000E+00    0.0000000000000000E+00    0.0000000000000000E+00    0.0000000000000000E+00    0.0000000000000000E+00    0.0000000000000000E+00
 -0.4451   0.5485    0.2463725231488700E-01    0.0000000000000000E+00    0.0000000000000000E+00   -0.4960291448443269E+00   -0.2341800215914376E-03    0.0000000000000000E+00    0.0000000000000000E+00    0.0000000000000000E+00    0.0000000000000000E+00    0.0000000000000000E+00
 -0.4454   0.5453    0.2620673900937278E-01    0.0000000000000000E+00    0.0000000000000000E+00   -0.4841352512891822E+00   -0.4309885205528827E-02    0.0000000000000000E+00    0.0000000000000000E+00    0.0000000000000000E+00    0.0000000000000000E+00    0.0000000000000000E+00
 -0.4460   0.5400    0.2877065209200812E-01    0.0000000000000000E+00    0.0000000000000000E+00   -0.4643841115581980E+00   -0.7512297994968090E-02    0.0000000000000000E+00    0.0000000000000000E+00    0.0000000000000000E+00    0.0000000000000000E+00    0.0000000000000000E+00
 -0.4468   0.5326    0.3220189438584230E-01    0.0000000000000000E+00    0.0000000000000000E+00   -0.4369162394882405E+00    0.5621594564348374E-02    0.0000000000000000E+00    0.0000000000000000E+00    0.0000000000000000E+00    0.0000000000000000E+00    0.0000000000000000E+00
 -0.4478   0.5231    0.3626636114437249E-01    0.0000000000000000E+00    0.0000000000000000E+00   -0.4019858314709436E+00    0.4692174592280009E-01    0.0000000000000000E+00    0.0000000000000000E+00    0.0000000000000000E+00    0.0000000000000000E+00    0.0000000000000000E+00
 -0.4490   0.5117    0.4065404253404663E-01    0.0000000000000000E+00    0.0000000000000000E+00   -0.3600031599255381E+00    0.1170265225278445E+00    0.0000000000000000E+00    0.0000000000000000E+00    0.0000000000000000E+00    0.0000000000000000E+00    0.0000000000000000E+00
 -0.4504   0.4982    0.4501213233441247E-01    0.0000000000000000E+00    0.0000000000000000E+00   -0.3115809780388412E+00    0.2046683415577728E+00    0.0000000000000000E+00    0.0000000000000000E+00    0.0000000000000000E+00    0.0000000000000000E+00    0.0000000000000000E+00
 -0.4520   0.4829    0.4897956136844418E-01    0.0000000000000000E+00    0.0000000000000000E+00   -0.2575976788876585E+00    0.2890223988150354E+00    0.0000000000000000E+00    0.0000000000000000E+00    0.0000000000000000E+00    0.0000000000000000E+00    0.0000000000000000E+00
 -0.4538   0.4657    0.5221770987933827E-01    0.0000000000000000E+00    0.0000000000000000E+00   -0.1992908593866561E+00    0.3440270419317529E+00    0.0000000000000000E+00    0.0000000000000000E+00    0.0000000000000000E+00    0.0000000000000000E+00    0.0000000000000000E+00
 -0.4558   0.4468    0.5443822174053269E-01    0.0000000000000000E+00    0.0000000000000000E+00   -0.1383734739528709E+00    0.3435522366256031E+00    0.0000000000000000E+00    0.0000000000000000E+00    0.0000000000000000E+00    0.0000000000000000E+00    0.0000000000000000E+00
 -0.4580   0.4261    0.5542449024051799E-01    0.0000000000000000E+00    0.0000000000000000E+00   -0.7712080979814441E-01    0.2665587226489617E+00    0.0000000000000000E+00    0.0000000000000000E+00    0.0000000000000000E+00    0.0000000000000000E+00    0.0000000000000000E+00
 -0.4603   0.4039    0.5504680120021826E-01    0.0000000000000000E+00    0.0000000000000000E+00   -0.1832624390110620E-01    0.1004786260608138E+00    0.0000000000000000E+00    0.0000000000000000E+00    0.0000000000000000E+00    0.0000000000000000E+00    0.0000000000000000E+00
 -0.4628   0.3801    0.5327133429524323E-01    0.0000000000000000E+00    0.0000000000000000E+00    0.3499135563528846E-01   -0.1587414106539158E+00    0.0000000000000000E+00    0.0000000000000000E+00    0.0000000000000000E+00    0.0000000000000000E+00    0.0000000000000000E+00
 -0.4654   0.3550    0.5016493377536710E-01    0.0000000000000000E+00    0.0000000000000000E+00    0.8016548302771823E-01   -0.5101282416583350E+00    0.0000000000000000E+00    0.0000000000000000E+00    0.0000000000000000E+00    0.0000000000000000E+00    0.0000000000000000E+00
 -0.4682   0.3285    0.4589283130564484E-01    0.0000000000000000E+00    0.0000000000000000E+00    0.1155892436981470E+00   -0.9524499576749464E+00    0.0000000000000000E+00    0.0000000000000000E+00    0.0000000000000000E+00    0.0000000000000000E+00    0.0000000000000000E+00
 -0.4711   0.3009    0.4070513733245791E-01    0.0000000000000000E+00    0.0000000000000000E+00    0.1412060497888605E+00   -0.1487137892376725E+01    0.0000000000000000E+00    0.0000000000000000E+00    0.0000000000000000E+00    0.0000000000000000E+00    0.0000000000000000E+00
 -0.4741   0.2722    0.3491246772082362E-01    0.0000000000000000E+00    0.0000000000000000E+00    0.1584615721497287E+00   -0.2117573266941476E+01    0.0000000000000000E+00    0.0000000000000000E+00    0.0000000000000000E+00    0.0000000000000000E+00    0.0000000000000000E+00
 -0.4773   0.2426    0.2886060154458919E-01    0.0000000000000000E+00    0.0000000000000000E+00    0.1697032964204440E+00   -0.2845305224714862E+01    0.0000000000000000E+00    0.0000000000000000E+00    0.0000000000000000E+00    0.0000000000000000E+00    0.0000000000000000E+00
 -0.4805   0.2121    0.2291345691231786E-01    0.0000000000000000E+00    0.0000000000000000E+00    0.1773715460742795E+00   -0.3665101797697006E+01    0.0000000000000000E+00    0.0000000000000000E+00    0.0000000000000000E+00    0.0000000000000000E+00    0.0000000000000000E+00
 -0.4837   0.1810    0.1744373583572690E-01    0.0000000000000000E+00    0.0000000000000000E+00    0.1834067642611404E+00   -0.4561053145712187E+01    0.0000000000000000E+00    0.0000000000000000E+00    0.0000000000000000E+00    0.0000000000000000E+00    0.0000000000000000E+00
 -0.4871   0.1493    0.1282140915195031E-01    0.0000000000000000E+00    0.0000000000000000E+00    0.1890621138940675E+00   -0.5505284883386781E+01    0.0000000000000000E+00    0.0000000000000000E+00    0.0000000000000000E+00    0.0000000000000000E+00    0.0000000000000000E+00
 -0.4904   0.1172    0.9392202965165122E-02    0.0000000000000000E+00    0.0000000000000000E+00    0.1950220591150204E+00   -0.6459568185170043E+01    0.0000000000000000E+00    0.0000000000000000E+00    0.0000000000000000E+00    0.0000000000000000E+00    0.0000000000000000E+00
 -0.4938   0.0848    0.7445887535359024E-02    0.0000000000000000E+00    0.0000000000000000E+00    0.2016199970611183E+00   -0.7378797760447297E+01    0.0000000000000000E+00    0.0000000000000000E+00    0.0000000000000000E+00    0.0000000000000000E+00    0.0000000000000000E+00
 -0.4973   0.0523    0.7180715764212913E-02    0.0000000000000000E+00    0.0000000000000000E+00    0.2090146960468938E+00   -0.8214888412756283E+01    0.0000000000000000E+00    0.0000000000000000E+00    0.0000000000000000E+00    0.0000000000000000E+00    0.0000000000000000E+00
 -0.5007   0.0197    0.8670979501291802E-02    0.0000000000000000E+00    0.0000000000000000E+00    0.2172898628602273E+00   -0.8920056028286348E+01    0.0000000000000000E+00    0.0000000000000000E+00    0.0000000000000000E+00    0.0000000000000000E+00    0.0000000000000000E+00
 -0.5041  -0.0126    0.1184254326503174E-01    0.0000000000000000E+00    0.0000000000000000E+00    0.2264969339460251E+00   -0.9449353046988490E+01    0.0000000000000000E+00    0.0000000000000000E+00    0.0000000000000000E+00    0.0000000000000000E+00    0.0000000000000000E+00
 -0.5075  -0.0447    0.1645907200136681E-01    0.0000000000000000E+00    0.0000000000000000E+00    0.2366686972439221E+00   -0.9763041113696914E+01    0.0000000000000000E+00    0.0000000000000000E+00    0.0000000000000000E+00    0.0000000000000000E+00    0.0000000000000000E+00
 -0.5108  -0.0764    0.2212233053149440E-01    0.0000000000000000E+00    0.0000000000000000E+00    0.2478210732909281E+00   -0.9829654528132988E+01    0.0000000000000000E+00    0.0000000000000000E+00    0.0000000000000000E+00    0.0000000000000000E+00    0.0000000000000000E+00
 -0.5141  -0.1076    0.2829159092576133E-01    0.0000000000000000E+00    0.0000000000000000E+00    0.2599509762779150E+00   -0.9630210609024960E+01    0.0000000000000000E+00    0.0000000000000000E+00    0.0000000000000000E+00    0.0000000000000000E+00    0.0000000000000000E+00
 -0.5173  -0.1380    0.3432778594738855E-01    0.0000000000000000E+00    0.0000000000000000E+00    0.2730334438801498E+00   -0.9163186776496199E+01    0.0000000000000000E+00    0.0000000000000000E+00    0.0000000000000000E+00    0.0000000000000000E+00    0.0000000000000000E+00
 -0.5204  -0.1677    0.3956403339514656E-01    0.0000000000000000E+00    0.0000000000000000E+00    0.2870194256516285E+00   -0.8448839200153287E+01    0.0000000000000000E+00    0.0000000000000000E+00    0.0000000000000000E+00    0.0000000000000000E+00    0.0000000000000000E+00
 -0.5234  -0.1964    0.4339543791459365E-01    0.0000000000000000E+00    0.0000000000000000E+00    0.3018348747665995E+00   -0.7530800929106516E+01    0.0000000000000000E+00    0.0000000000000000E+00    0.0000000000000000E+00    0.0000000000000000E+00    0.0000000000000000E+00
 -0.5263  -0.2240    0.4537009311778702E-01    0.0000000000000000E+00    0.0000000000000000E+00    0.3173811644311230E+00   -0.6473118717845696E+01    0.0000000000000000E+00    0.0000000000000000E+00    0.0000000000000000E+00    0.0000000000000000E+00    0.0000000000000000E+00
 -0.5291  -0.2504    0.4525682075235887E-01    0.0000000000000000E+00    0.0000000000000000E+00    0.3335361157717899E+00   -0.5352283559019495E+01    0.0000000000000000E+00    0.0000000000000000E+00    0.0000000000000000E+00    0.0000000000000000E+00    0.0000000000000000E+00
 -0.5317  -0.2756    0.4306887160927220E-01    0.0000000000000000E+00    0.0000000000000000E+00    0.3501542778857501E+00   -0.4245833788172699E+01    0.0000000000000000E+00    0.0000000000000000E+00    0.0000000000000000E+00    0.0000000000000000E+00    0.0000000000000000E+00
 -0.5342  -0.2994    0.3903738314878573E-01    0.0000000000000000E+00    0.0000000000000000E+00    0.3670650113809379E+00   -0.3220762537939676E+01    0.0000000000000000E+00    0.0000000000000000E+00    0.0000000000000000E+00    0.0000000000000000E+00    0.0000000000000000E+00
 -0.5366  -0.3216    0.3354649105170730E-01    0.0000000000000000E+00    0.0000000000000000E+00    0.3840678670322834E+00   -0.2325141389653661E+01    0.0000000000000000E+00    0.0000000000000000E+00    0.0000000000000000E+00    0.0000000000000000E+00    0.0000000000000000E+00
 -0.5387  -0.3422    0.2705389714492133E-01    0.0000000000000000E+00    0.0000000000000000E+00    0.4009267789308960E+00   -0.1584979403122690E+01    0.0000000000000000E+00    0.0000000000000000E+00    0.0000000000000000E+00    0.0000000000000000E+00    0.0000000000000000E+00
 -0.5407  -0.3612    0.2002071347798340E-01    0.0000000000000000E+00    0.0000000000000000E+00    0.4173669302571180E+00   -0.1006175946527415E+01    0.0000000000000000E+00    0.0000000000000000E+00    0.0000000000000000E+00    0.0000000000000000E+00    0.0000000000000000E+00
 -0.5425  -0.3784    0.1286480970865906E-01    0.0000000000000000E+00    0.0000000000000000E+00    0.4330792433215045E+00   -0.5796995262198483E+00    0.0000000000000000E+00    0.0000000000000000E+00    0.0000000000000000E+00    0.0000000000000000E+00    0.0000000000000000E+00
 -0.5441  -0.3937    0.5939841590300212E-02    0.0000000000000000E+00    0.0000000000000000E+00    0.4477358157790911E+00   -0.2875272391002856E+00    0.0000000000000000E+00    0.0000000000000000E+00    0.0000000000000000E+00    0.0000000000000000E+00    0.0000000000000000E+00
 -0.5455  -0.4071   -0.4670131085275854E-03    0.0000000000000000E+00    0.0000000000000000E+00    0.4610152074056750E+00   -0.1072561549009783E+00    0.0000000000000000E+00    0.0000000000000000E+00    0.0000000000000000E+00    0.0000000000000000E+00    0.0000000000000000E+00
 -0.5468  -0.4186   -0.6128926453751750E-02    0.0000000000000000E+00    0.0000000000000000E+00    0.4726312634470580E+00   -0.1445681280069773E-01    0.0000000000000000E+00    0.0000000000000000E+00    0.0000000000000000E+00    0.0000000000000000E+00    0.0000000000000000E+00
 -0.5477  -0.4281   -0.1087519111210138E-01    0.0000000000000000E+00    0.0000000000000000E+00    0.4823562547920091E+00    0.1700796805309053E-01    0.0000000000000000E+00    0.0000000000000000E+00    0.0000000000000000E+00    0.0000000000000000E+00    0.0000000000000000E+00
 -0.5485  -0.4354   -0.1459341262096255E-01    0.0000000000000000E+00    0.0000000000000000E+00    0.4900307043711019E+00    0.1451590618462920E-01    0.0000000000000000E+00    0.0000000000000000E+00    0.0000000000000000E+00    0.0000000000000000E+00    0.0000000000000000E+00
 -0.5491  -0.4407   -0.1723610926696204E-01    0.0000000000000000E+00    0.0000000000000000E+00    0.4955579411202306E+00    0.3842419517270764E-02    0.0000000000000000E+00    0.0000000000000000E+00    0.0000000000000000E+00    0.0000000000000000E+00    0.0000000000000000E+00
 -0.5494  -0.4439   -0.1881655111378119E-01    0.0000000000000000E+00    0.0000000000000000E+00    0.4988881010595217E+00   -0.1319695247462415E-03    0.0000000000000000E+00    0.0000000000000000E+00    0.0000000000000000E+00    0.0000000000000000E+00    0.0000000000000000E+00
 -0.5495  -0.4450   -0.1934617581139381E-01    0.0000000000000000E+00    0.0000000000000000E+00    0.5000000000000000E+00    0.0000000000000000E+00    0.0000000000000000E+00    0.0000000000000000E+00    0.0000000000000000E+00    0.0000000000000000E+00    0.0000000000000000E+00
 -0.4439   0.5494    0.2416726639925659E-01    0.0000000000000000E+00    0.0000000000000000E+00   -0.5000000000000000E+00   -0.2343112223869562E-03    0.0000000000000000E+00    0.0000000000000000E+00    0.0000000000000000E+00    0.0000000000000000E+00    0.0000000000000000E+00
 -0.4440   0.5483    0.2469512371780102E-01    0.2829266344885320E-06   -0.2830136731640434E-06   -0.4960290611360184E+00   -0.5335867523493982E-03   -0.1975264471036071E-09    0.4782282311040914E-09    0.4854725969101123E-12    0.4710541852415151E-12   -0.6044856564087209E-11
 -0.4444   0.5452    0.2626331380598097E-01    0.3580762943595344E-05   -0.6915495774325611E-06   -0.4841349176902458E+00   -0.2411992522171013E-02   -0.2056899393584075E-08    0.4813684153972403E-09    0.8626068609407511E-12    0.6609144655167487E-12   -0.2481748530638872E-10
 -0.4449   0.5399    0.2882120677710096E-01    0.5537063039430350E-05    0.2648913027153021E-06   -0.4643833730490411E+00   -0.2758072328576993E-02   -0.3428280645458136E-08    0.4843982420038584E-09    0.8968156078870138E-12    0.6426530314851409E-12   -0.5573526362656622E-10
 -0.4457   0.5325    0.3224216226682416E-01   -0.8758144465598602E-05    0.1735290233702758E-05   -0.4369149725804950E+00    0.1076115374336186E-01    0.4233562574674336E-08    0.4868815771559565E-09    0.7635263948868598E-12    0.6947654257460911E-12   -0.9969845261859067E-10
 -0.4467   0.5230    0.3629649185384989E-01   -0.5170916365197210E-04    0.3023632900626889E-05   -0.4019839476511632E+00    0.4969548451557823E-01    0.2740740353217252E-07    0.4892749365381643E-09    0.4880826645625724E-12    0.6424062670706832E-12   -0.1577109120382003E-09
 -0.4479   0.5116    0.4067631336447058E-01   -0.1243758905114507E-03    0.3654520649802531E-05   -0.3600005778767452E+00    0.1153091888867143E+00    0.6675244109989852E-07    0.4916546241309772E-09    0.9937103223611743E-13    0.6930393758874942E-12   -0.2319716918552928E-09
 -0.4493   0.4981    0.4502983486885475E-01   -0.2151972897048391E-03    0.3490391563947869E-05   -0.3115775804822368E+00    0.1973313559559184E+00    0.1158762233750402E-06    0.4943714318125791E-09   -0.3531064329820310E-12    0.6642724564853708E-12   -0.3256085852332280E-09
 -0.4509   0.4828    0.4899593549589596E-01   -0.3023951967516468E-03    0.2531618390784130E-05   -0.2575932829838115E+00    0.2758626843627161E+00    0.1631199953003844E-06    0.4978676967221096E-09   -0.8861522626801843E-12    0.6969320953675862E-12   -0.4432073423543681E-09
 -0.4527   0.4656    0.5223546127942962E-01   -0.3585056045921056E-03    0.9405317467526773E-06   -0.1992852289808668E+00    0.3256837387599346E+00    0.1936333405971373E-06    0.5028359245911468E-09   -0.1547220684905426E-11    0.6791962825491993E-12   -0.5877684519650650E-09
 -0.4547   0.4467    0.5445907204141845E-01   -0.3558670195661402E-03   -0.1064098221716337E-05   -0.1383663921547516E+00    0.3212250665719923E+00    0.1926126401594131E-06    0.5099592458382429E-09   -0.2435059098804260E-11    0.6757736731310970E-12   -0.7585732667014788E-09
 -0.4569   0.4260    0.5544913509387129E-01   -0.2720863716360724E-03   -0.3207791951900865E-05   -0.7711221255744401E-01    0.2417059060624559E+00    0.1479998145609588E-06    0.5199498097699373E-09   -0.3619486654837800E-11    0.6650183875800408E-12   -0.9438773512782106E-09
 -0.4592   0.4038    0.5507508805328672E-01   -0.9365799514268783E-04   -0.5269295887170362E-05   -0.1831637953733456E-01    0.7444775264731475E-01    0.5261471996357503E-07    0.5332660164142355E-09   -0.5118350188126897E-11    0.6321922152441317E-12   -0.1116403317014125E-08
 -0.4617   0.3800    0.5330283996818433E-01    0.1839268970805857E-03   -0.7115652708383170E-05    0.3500182837801977E-01   -0.1849112439009201E+00   -0.9596004310968771E-07    0.5497418926331266E-09   -0.6890141235338376E-11    0.6113720640854581E-12   -0.1230304025323647E-08
 -0.4644   0.3549    0.5019951665074295E-01    0.5597868287489739E-03   -0.8753550450896497E-05    0.8017557069728924E-01   -0.5357075783167370E+00   -0.2971956875510105E-06    0.5680241103867001E-09   -0.8875247758943772E-11    0.5701272787206335E-12   -0.1230725216183615E-08
 -0.4672   0.3284    0.4593097324383259E-01    0.1032641377555249E-02   -0.1026549008271228E-04    0.1155979066874123E+00   -0.9767749421568257E+00   -0.5504243095947739E-06    0.5852476524237371E-09   -0.1104137614671430E-10    0.4833702882400814E-12   -0.1073369830517645E-08
 -0.4701   0.3008    0.4074777222949571E-01    0.1603886492591956E-02   -0.1174902708684295E-04    0.1412125785542887E+00   -0.1509295153397712E+01   -0.8563966745573181E-06    0.5973093304689758E-09   -0.1337360083786265E-10    0.4404809850200309E-12   -0.7466698231928248E-09
 -0.4731   0.2721    0.3496052723515813E-01    0.2276848989686073E-02   -0.1323085791578940E-04    0.1584658180441558E+00   -0.2136096795397572E+01   -0.1216963040784791E-05    0.5998879830382275E-09   -0.1588381509654013E-10    0.3529607162100490E-12   -0.2822368970478717E-09
 -0.4762   0.2424    0.2891443188163194E-01    0.3052794989538912E-02   -0.1465177160921852E-04    0.1697056148533148E+00   -0.2857998618016933E+01   -0.1632856185045553E-05    0.5893834795211994E-09   -0.1858627834971927E-10    0.2104288965298906E-12    0.2561187911059859E-09
 -0.4794   0.2120    0.2297243328444587E-01    0.3925720737939683E-02   -0.1586640120947220E-04    0.1773725290533661E+00   -0.3669012721870631E+01   -0.2100946559639138E-05    0.5636448772994296E-09   -0.2139572720383232E-10    0.9250933352689117E-13    0.7969409299146690E-09
 -0.4827   0.1809    0.1750610686147780E-01    0.4878283788260406E-02   -0.1669559033503654E-04    0.1834069668834348E+00   -0.4552651360369212E+01   -0.2611996525583379E-05    0.5219629589658936E-09   -0.2411142813185663E-10   -0.9783840404509192E-14    0.1285179810879902E-08
 -0.4860   0.1492    0.1288445067399609E-01    0.5880518743730534E-02   -0.1696697934993891E-04    0.1890619165479687E+00   -0.5480805891390532E+01   -0.3149997021899991E-05    0.4649341397988671E-09   -0.2640170720935586E-10   -0.1416783357299778E-12    0.1690647702130149E-08
 -0.4894   0.1171    0.9452497609027000E-02    0.6891612430119289E-02   -0.1655911115779748E-04    0.1950216660873448E+00   -0.6415458740568850E+01   -0.3693075798845670E-05    0.3942561208059026E-09   -0.2786082475836338E-10   -0.2272348975651539E-12    0.2005632479106650E-08
 -0.4928   0.0847    0.7499667259140594E-02    0.7863633865723800E-02   -0.1540458932488453E-04    0.2016194962419690E+00   -0.7312169937714396E+01   -0.4215517986022603E-05    0.3125794553748840E-09   -0.2817415745148821E-10   -0.3113065361048939E-12    0.2235474180767305E-08
 -0.4962   0.0522    0.7224097382034193E-02    0.8745677320891607E-02   -0.1348599157821918E-04    0.2090141169281723E+00   -0.8123921919995926E+01   -0.4689970582640423E-05    0.2233807964990842E-09   -0.2716182834205938E-10   -0.3505182255558736E-12    0.2391184146521841E-08
 -0.4996   0.0196    0.8700138762465302E-02    0.9487335283451980E-02   -0.1081340390364937E-04    0.2172892115959755E+00   -0.8804327478607791E+01   -0.5089319873243186E-05    0.1307759109336892E-09   -0.2486205685769960E-10   -0.3618147448314346E-12    0.2483800222788379E-08
 -0.5030  -0.0128    0.1185380408484958E-01    0.1004137204172573E-01   -0.7419730666226135E-05    0.2264962095146126E+00   -0.9310086475158462E+01   -0.5388125110608258E-05    0.3889234247156370E-10   -0.2146860467178158E-10   -0.3057415431939603E-12    0.2523479003015139E-08
 -0.5064  -0.0449    0.1644906109799288E-01    0.1036622120115642E-01   -0.3363518657585036E-05    0.2366678977317792E+00   -0.9603284094991485E+01   -0.5563960984383913E-05   -0.4832683298677809E-10   -0.1732752830108097E-10   -0.2505200907831906E-12    0.2518394282176317E-08
 -0.5097  -0.0765    0.2208820852700562E-01    0.1042919981472137E-01    0.1245537675589737E-05    0.2478201981311485E+00   -0.9654325250854576E+01   -0.5599158575883747E-05   -0.1278164921993119E-09   -0.1285033190967511E-10   -0.1065588589588273E-12    0.2475159801076932E-08
 -0.5130  -0.1077    0.2823145853582618E-01    0.1021090901854684E-01    0.6220464429479584E-05    0.2599500268932727E+00   -0.9445954815589118E+01   -0.5483163994624858E-05   -0.1976186766311505E-09   -0.8472611501275651E-11    0.3888556143749611E-13    0.2399470989955521E-08
 -0.5162  -0.1381    0.3424114918583065E-01    0.9710406223979298E-02    0.1127618681524322E-04    0.2730324234445565E+00   -0.8977931612937111E+01   -0.5215358161044427E-05   -0.2570980303651105E-09   -0.4610034576302269E-11    0.2157579670480914E-12    0.2296139420959742E-08
 -0.5193  -0.1678    0.3945226388351983E-01    0.8949652069473700E-02    0.1603859992998298E-04    0.2870183381163793E+00   -0.8271031660543525E+01   -0.4807436927899949E-05   -0.3069281426237858E-09   -0.1581845765485923E-11    0.3996108999260173E-12    0.2169359275550065E-08
 -0.5223  -0.1965    0.4326196908292286E-01    0.7975083036400765E-02    0.2009021278838803E-04    0.3018337233355412E+00   -0.7368370573251457E+01   -0.4284317926080672E-05   -0.3488190916667300E-09    0.3756994715331530E-12    0.5864614349704311E-12    0.2023359205877151E-08
 -0.5252  -0.2241    0.4522026398139233E-01    0.6854414185618143E-02    0.2304873282920073E-04    0.3173799499846951E+00   -0.6332413771645386E+01   -0.3682383121144914E-05   -0.3850363292090542E-09    0.1253996906314114E-11    0.7295691828446138E-12    0.1862211019068583E-08
 -0.5280  -0.2506    0.4509724329194783E-01    0.5668237594265334E-02    0.2465702419470873E-04    0.3335348361288903E+00   -0.5237225628284254E+01   -0.3045020213526520E-05   -0.4177150084161418E-09    0.1178890318698222E-11    0.8430200981734970E-12    0.1689792380674127E-08
 -0.5307  -0.2757    0.4290653109991776E-01    0.4498085242350484E-02    0.2484354638278453E-04    0.3501529289794882E+00   -0.4157594218955935E+01   -0.2416111350969056E-05   -0.4483659901688419E-09    0.4127254094044019E-12    0.9317685512044704E-12    0.1510226036241513E-08
 -0.5332  -0.2995    0.3887864547689421E-01    0.3414325735334190E-02    0.2373595836534411E-04    0.3670635911355455E+00   -0.3157978554132655E+01   -0.1833589915477295E-05   -0.4776137679796122E-09   -0.6982470157623766E-12    0.9699324676759602E-12    0.1327416581167751E-08
 -0.5355  -0.3217    0.3339639489527021E-01    0.2467436299715735E-02    0.2160818958833581E-04    0.3840663817643477E+00   -0.2284620337178754E+01   -0.1324618072681237E-05   -0.5052271864758318E-09   -0.1821862105622074E-11    0.9987566329527908E-12    0.1145611740888119E-08
 -0.5377  -0.3424    0.2691580520771877E-01    0.1684739661544355E-02    0.1880415697133086E-04    0.4009252506086483E+00   -0.1562540146547861E+01   -0.9039524601901393E-06   -0.5304758229907058E-09   -0.2700138723721324E-11    0.1007541272635137E-11    0.9686375243567191E-09
 -0.5397  -0.3613    0.1989644454960854E-01    0.1072447072068017E-02    0.1564253269655928E-04    0.4173654015419140E+00   -0.9974609045500060E+00   -0.5748893057922573E-06   -0.5524388689559512E-09   -0.3202892812081970E-11    0.9859890681696015E-12    0.7996392888121040E-09
 -0.5415  -0.3785    0.1275499324258917E-01    0.6210637833852292E-03    0.1237112524563928E-04    0.4330777769496894E+00   -0.5806544369612122E+00   -0.3323732610076728E-06   -0.5704964001207458E-09   -0.3299520379140830E-11    0.9672332379473403E-12    0.6418901191823645E-09
 -0.5431  -0.3938    0.5844415142927463E-02    0.3115746954020147E-03    0.9134687896395641E-05    0.4477344862205905E+00   -0.2946492935228737E+00   -0.1661051170848679E-06   -0.5843823966400485E-09   -0.3065731696283436E-11    0.9495251807045690E-12    0.4971678208010033E-09
 -0.5445  -0.4073   -0.5485518101315625E-03    0.1202511801657925E-03    0.6030773297481675E-05    0.4610140856774479E+00   -0.1174809413886772E+00   -0.6342824401856752E-07   -0.5943860265089640E-09   -0.2630257123215074E-11    0.9398766487311860E-12    0.3692424820761486E-09
 -0.5457  -0.4187   -0.6197569728718387E-02    0.2109402752492401E-04    0.3153438695223776E-05    0.4726303993030176E+00   -0.2505685045097781E-01   -0.1028322234742819E-07   -0.6011184813803361E-09   -0.2143667188203580E-11    0.9225814556756973E-12    0.2580822690972928E-09
 -0.5467  -0.4282   -0.1093302762836826E-01   -0.1373068223266634E-04    0.7524048605670286E-06    0.4823556626847681E+00    0.8572490416257277E-02    0.8104386866540109E-08   -0.6056756996983270E-09   -0.1730549731293607E-11    0.9372710940702689E-12    0.1662360939007346E-09
 -0.5475  -0.4356   -0.1464463688797620E-01   -0.1324876215466381E-04   -0.8058119923816669E-06    0.4900303591513074E+00    0.1012940094615129E-01    0.7544023438499727E-08   -0.6091164593113180E-09   -0.1457165985097042E-11    0.9365594237642494E-12    0.9385312796025835E-10
 -0.5480  -0.4409   -0.1728758679745369E-01   -0.3933207877496308E-05   -0.1054269353681558E-05    0.4955577857423417E+00    0.3609695510785772E-02    0.2086335535891156E-08   -0.6131087629777932E-09   -0.1256796099483037E-11    0.9725375886560084E-12    0.4180226650940533E-10
 -0.5483  -0.4440   -0.1887032341731820E-01   -0.1057028845767743E-06   -0.1059829354633087E-06    0.4988880621235381E+00    0.5213440542323126E-03    0.9199992962564847E-10   -0.6175229688492809E-09   -0.6745449468090192E-12    0.6741412983402029E-12    0.1009897748109959E-10
 -0.5485  -0.4451   -0.1940001107029426E-01    0.0000000000000000E+00    0.0000000000000000E+00    0.5000000000000000E+00   -0.1313921104965538E-03    0.0000000000000000E+00    0.0000000000000000E+00    0.0000000000000000E+00    0.0000000000000000E+00    0.0000000000000000E+00
 -0.4407   0.5491    0.2432848944708042E-01    0.0000000000000000E+00    0.0000000000000000E+00   -0.5000000000000000E+00   -0.4310078782450262E-02    0.0000000000000000E+00    0.0000000000000000E+00    0.0000000000000000E+00    0.0000000000000000E+00    0.0000000000000000E+00
 -0.4409   0.5480    0.2485631176926676E-01    0.6913686522135211E-06   -0.3580758335143535E-05   -0.4960278110121426E+00   -0.2411794820224754E-02   -0.2056928654851647E-08    0.4812162142289050E-09    0.6885231317380058E-12    0.8629085401952452E-12   -0.5987736565252200E-11
 -0.4412   0.5448    0.2642250442736504E-01    0.5087975708734098E-05   -0.5088491154617643E-05   -0.4841299379505517E+00    0.2104618422567842E-02   -0.1891066290589654E-07    0.4824253002286283E-09    0.2000619071448884E-11    0.2078553692011487E-11   -0.2480188840761621E-10
 -0.4417   0.5395    0.2896800677536928E-01   -0.6176361470191552E-06    0.6604026796664409E-05   -0.4643723264381550E+00    0.8602726577185024E-02   -0.1883241908364818E-07    0.4845377397921791E-09    0.2744396723763920E-11    0.2558248318046408E-11   -0.5580550604955548E-10
 -0.4425   0.5321    0.3236471175420818E-01   -0.6103602581130877E-04    0.2690668132563857E-04   -0.4368958863819890E+00    0.2343919373507619E-01    0.1073018655189835E-06    0.4868319983253322E-09    0.2591820855157856E-11    0.2747978060380074E-11   -0.9954503193965181E-10
 -0.4435   0.5227    0.3639225227167505E-01   -0.2198964780256372E-03    0.4536958086497624E-04   -0.4019552680681408E+00    0.5598852158399467E-01    0.4586541449200013E-06    0.4891349790481225E-09    0.1775786549057523E-11    0.2838897519841233E-11   -0.1574768440648633E-09
 -0.4447   0.5112    0.4074994555814734E-01   -0.4841430145307854E-03    0.5477650827541140E-04   -0.3599608528646079E+00    0.1090180358371034E+00    0.1048160154076679E-05    0.4915079836187441E-09    0.4759300592516169E-12    0.2871900633971691E-11   -0.2318166700265856E-09
 -0.4461   0.4978    0.4508963327248823E-01   -0.8130786973128255E-03    0.5211225914389708E-04   -0.3115249311913454E+00    0.1748703715282153E+00    0.1783479445465933E-05    0.4942330988910726E-09   -0.1139772304314945E-11    0.2882938679449332E-11   -0.3254685305986715E-09
 -0.4477   0.4825    0.4905077200890601E-01   -0.1125688135705993E-02    0.3737482706096632E-04   -0.2575250542515071E+00    0.2364761752627904E+00    0.2485850206065048E-05    0.4977643609793692E-09   -0.3076011667602074E-11    0.2898487005964512E-11   -0.4430520256226700E-09