 title="result"
 variables="x","y","P","u","v","t","omega","psi","RES1","RES2","RES3","RES4"
zone,j= 49,i= 49,f=point
 -0.4695   0.5288    0.2356205034539723E-01    0.0000000000000000E+00    0.0000000000000000E+00   -0.5000000000000000E+00    0.0000000000000000E+00    0.0000000000000000E+00    0.0000000000000000E+00    0.0000000000000000E+00    0.0000000000000000E+00    0.0000000000000000E+00
 -0.4695   0.5277    0.2409190018716593E-01    0.0000000000000000E+00    0.0000000000000000E+00   -0.4961784902022429E+00   -0.3010948906573833E-03    0.0000000000000000E+00    0.0000000000000000E+00    0.0000000000000000E+00    0.0000000000000000E+00    0.0000000000000000E+00
 -0.4697   0.5245    0.2567150494032013E-01    0.0000000000000000E+00    0.0000000000000000E+00   -0.4847318447486043E+00   -0.4438002188032668E-02    0.0000000000000000E+00    0.0000000000000000E+00    0.0000000000000000E+00    0.0000000000000000E+00    0.0000000000000000E+00
 -0.4701   0.5192    0.2826041804626278E-01    0.0000000000000000E+00    0.0000000000000000E+00   -0.4657225481163722E+00   -0.4448590542056988E-02    0.0000000000000000E+00    0.0000000000000000E+00    0.0000000000000000E+00    0.0000000000000000E+00    0.0000000000000000E+00
 -0.4705   0.5118    0.3172711284652809E-01    0.0000000000000000E+00    0.0000000000000000E+00   -0.4392819282967056E+00    0.1938512928813243E-01    0.0000000000000000E+00    0.0000000000000000E+00    0.0000000000000000E+00    0.0000000000000000E+00    0.0000000000000000E+00
 -0.4711   0.5023    0.3582396615471307E-01    0.0000000000000000E+00    0.0000000000000000E+00   -0.4056416655721493E+00    0.8068365653303644E-01    0.0000000000000000E+00    0.0000000000000000E+00    0.0000000000000000E+00    0.0000000000000000E+00    0.0000000000000000E+00
 -0.4717   0.4908    0.4022703301098124E-01    0.0000000000000000E+00    0.0000000000000000E+00   -0.3651631721519902E+00    0.1787215839883200E+00    0.0000000000000000E+00    0.0000000000000000E+00    0.0000000000000000E+00    0.0000000000000000E+00    0.0000000000000000E+00
 -0.4725   0.4773    0.4457478776971494E-01    0.0000000000000000E+00    0.0000000000000000E+00   -0.3183670722796585E+00    0.2980867480027375E+00    0.0000000000000000E+00    0.0000000000000000E+00    0.0000000000000000E+00    0.0000000000000000E+00    0.0000000000000000E+00
 -0.4735   0.4619    0.4850719591754934E-01    0.0000000000000000E+00    0.0000000000000000E+00   -0.2659822027131574E+00    0.4120486318275283E+00    0.0000000000000000E+00    0.0000000000000000E+00    0.0000000000000000E+00    0.0000000000000000E+00    0.0000000000000000E+00
 -0.4745   0.4446    0.5169750577232333E-01    0.0000000000000000E+00    0.0000000000000000E+00   -0.2090390050074238E+00    0.4885365244437515E+00    0.0000000000000000E+00    0.0000000000000000E+00    0.0000000000000000E+00    0.0000000000000000E+00    0.0000000000000000E+00
 -0.4756   0.4256    0.5387680918647604E-01    0.0000000000000000E+00    0.0000000000000000E+00   -0.1490119111575894E+00    0.4973087491933519E+00    0.0000000000000000E+00    0.0000000000000000E+00    0.0000000000000000E+00    0.0000000000000000E+00    0.0000000000000000E+00
 -0.4768   0.4049    0.5484720621192678E-01    0.0000000000000000E+00    0.0000000000000000E+00   -0.8796539895537971E-01    0.4166314085393476E+00    0.0000000000000000E+00    0.0000000000000000E+00    0.0000000000000000E+00    0.0000000000000000E+00    0.0000000000000000E+00
 -0.4782   0.3826    0.5448765340549325E-01    0.0000000000000000E+00    0.0000000000000000E+00   -0.2859124219291199E-01    0.2367237215910616E+00    0.0000000000000000E+00    0.0000000000000000E+00    0.0000000000000000E+00    0.0000000000000000E+00    0.0000000000000000E+00
 -0.4796   0.3587    0.5275857701516833E-01    0.0000000000000000E+00    0.0000000000000000E+00    0.2601531625221106E-01   -0.4174249041336992E-01    0.0000000000000000E+00    0.0000000000000000E+00    0.0000000000000000E+00    0.0000000000000000E+00    0.0000000000000000E+00
 -0.4811   0.3335    0.4971097485713002E-01    0.0000000000000000E+00    0.0000000000000000E+00    0.7292660373296689E-01   -0.4132875230252941E+00    0.0000000000000000E+00    0.0000000000000000E+00    0.0000000000000000E+00    0.0000000000000000E+00    0.0000000000000000E+00
 -0.4827   0.3069    0.4549383470987086E-01    0.0000000000000000E+00    0.0000000000000000E+00    0.1101716293650844E+00   -0.8737568755338262E+00    0.0000000000000000E+00    0.0000000000000000E+00    0.0000000000000000E+00    0.0000000000000000E+00    0.0000000000000000E+00
 -0.4843   0.2792    0.4034843055161481E-01    0.0000000000000000E+00    0.0000000000000000E+00    0.1373647274701423E+00   -0.1423320727383842E+01    0.0000000000000000E+00    0.0000000000000000E+00    0.0000000000000000E+00    0.0000000000000000E+00    0.0000000000000000E+00
 -0.4860   0.2504    0.3458518403397766E-01    0.0000000000000000E+00    0.0000000000000000E+00    0.1557705331839253E+00   -0.2065151330671797E+01    0.0000000000000000E+00    0.0000000000000000E+00    0.0000000000000000E+00    0.0000000000000000E+00    0.0000000000000000E+00
 -0.4878   0.2206    0.2855485256972178E-01    0.0000000000000000E+00    0.0000000000000000E+00    0.1677270700057055E+00   -0.2801076873828498E+01    0.0000000000000000E+00    0.0000000000000000E+00    0.0000000000000000E+00    0.0000000000000000E+00    0.0000000000000000E+00
 -0.4896   0.1901    0.2262752634728762E-01    0.0000000000000000E+00    0.0000000000000000E+00    0.1757766963653284E+00   -0.3626241280339361E+01    0.0000000000000000E+00    0.0000000000000000E+00    0.0000000000000000E+00    0.0000000000000000E+00    0.0000000000000000E+00
 -0.4914   0.1588    0.1718099082167556E-01    0.0000000000000000E+00    0.0000000000000000E+00    0.1819894683178769E+00   -0.4524882892082637E+01    0.0000000000000000E+00    0.0000000000000000E+00    0.0000000000000000E+00    0.0000000000000000E+00    0.0000000000000000E+00
 -0.4933   0.1270    0.1258813004817592E-01    0.0000000000000000E+00    0.0000000000000000E+00    0.1877209751121812E+00   -0.5468832645158438E+01    0.0000000000000000E+00    0.0000000000000000E+00    0.0000000000000000E+00    0.0000000000000000E+00    0.0000000000000000E+00
 -0.4953   0.0948    0.9194627408924133E-02    0.0000000000000000E+00    0.0000000000000000E+00    0.1937169534559367E+00   -0.6419117899089569E+01    0.0000000000000000E+00    0.0000000000000000E+00    0.0000000000000000E+00    0.0000000000000000E+00    0.0000000000000000E+00
 -0.4972   0.0623    0.7286295747457742E-02    0.0000000000000000E+00    0.0000000000000000E+00    0.2003405458991249E+00   -0.7329611178100579E+01    0.0000000000000000E+00    0.0000000000000000E+00    0.0000000000000000E+00    0.0000000000000000E+00    0.0000000000000000E+00
 -0.4991   0.0296    0.7052579294541351E-02    0.0000000000000000E+00    0.0000000000000000E+00    0.2077627768841740E+00   -0.8151189620066738E+01    0.0000000000000000E+00    0.0000000000000000E+00    0.0000000000000000E+00    0.0000000000000000E+00    0.0000000000000000E+00
 -0.5011  -0.0030    0.8553571905810955E-02    0.0000000000000000E+00    0.0000000000000000E+00    0.2160718111084320E+00   -0.8835308978663992E+01    0.0000000000000000E+00    0.0000000000000000E+00    0.0000000000000000E+00    0.0000000000000000E+00    0.0000000000000000E+00
 -0.5030  -0.0355    0.1169595179936089E-01    0.0000000000000000E+00    0.0000000000000000E+00    0.2253205066157880E+00   -0.9336852075517648E+01    0.0000000000000000E+00    0.0000000000000000E+00    0.0000000000000000E+00    0.0000000000000000E+00    0.0000000000000000E+00
 -0.5049  -0.0677    0.1622099261205368E-01    0.0000000000000000E+00    0.0000000000000000E+00    0.2355418806579306E+00   -0.9616816242223759E+01    0.0000000000000000E+00    0.0000000000000000E+00    0.0000000000000000E+00    0.0000000000000000E+00    0.0000000000000000E+00
 -0.5068  -0.0995    0.2170836177210857E-01    0.0000000000000000E+00    0.0000000000000000E+00    0.2467514941333444E+00   -0.9645641538773550E+01    0.0000000000000000E+00    0.0000000000000000E+00    0.0000000000000000E+00    0.0000000000000000E+00    0.0000000000000000E+00
 -0.5086  -0.1308    0.2760056887501908E-01    0.0000000000000000E+00    0.0000000000000000E+00    0.2589455262424662E+00   -0.9407518201108086E+01    0.0000000000000000E+00    0.0000000000000000E+00    0.0000000000000000E+00    0.0000000000000000E+00    0.0000000000000000E+00
 -0.5105  -0.1614    0.3325279429684115E-01    0.0000000000000000E+00    0.0000000000000000E+00    0.2720980577716430E+00   -0.8905155109714729E+01    0.0000000000000000E+00    0.0000000000000000E+00    0.0000000000000000E+00    0.0000000000000000E+00    0.0000000000000000E+00
 -0.5122  -0.1911    0.3800790888228362E-01    0.0000000000000000E+00    0.0000000000000000E+00    0.2861590409192474E+00   -0.8163486858333956E+01    0.0000000000000000E+00    0.0000000000000000E+00    0.0000000000000000E+00    0.0000000000000000E+00    0.0000000000000000E+00
 -0.5139  -0.2199    0.4128743288252593E-01    0.0000000000000000E+00    0.0000000000000000E+00    0.3010535755505031E+00   -0.7230316856896311E+01    0.0000000000000000E+00    0.0000000000000000E+00    0.0000000000000000E+00    0.0000000000000000E+00    0.0000000000000000E+00
 -0.5156  -0.2477    0.4267890773669433E-01    0.0000000000000000E+00    0.0000000000000000E+00    0.3166824266141665E+00   -0.6172308036848487E+01    0.0000000000000000E+00    0.0000000000000000E+00    0.0000000000000000E+00    0.0000000000000000E+00    0.0000000000000000E+00
 -0.5172  -0.2742    0.4199568021809597E-01    0.0000000000000000E+00    0.0000000000000000E+00    0.3329229658676008E+00   -0.5066270928438544E+01    0.0000000000000000E+00    0.0000000000000000E+00    0.0000000000000000E+00    0.0000000000000000E+00    0.0000000000000000E+00
 -0.5187  -0.2995    0.3929092738097986E-01    0.0000000000000000E+00    0.0000000000000000E+00    0.3496291235954186E+00   -0.3987654006133406E+01    0.0000000000000000E+00    0.0000000000000000E+00    0.0000000000000000E+00    0.0000000000000000E+00    0.0000000000000000E+00
 -0.5201  -0.3233    0.3482330441089255E-01    0.0000000000000000E+00    0.0000000000000000E+00    0.3666289715708174E+00   -0.2999541584395167E+01    0.0000000000000000E+00    0.0000000000000000E+00    0.0000000000000000E+00    0.0000000000000000E+00    0.0000000000000000E+00
 -0.5214  -0.3456    0.2898874551377519E-01    0.0000000000000000E+00    0.0000000000000000E+00    0.3837196610431042E+00   -0.2145314151098954E+01    0.0000000000000000E+00    0.0000000000000000E+00    0.0000000000000000E+00    0.0000000000000000E+00    0.0000000000000000E+00
 -0.5226  -0.3663    0.2224255953199692E-01    0.0000000000000000E+00    0.0000000000000000E+00    0.4006615642057405E+00   -0.1446572630185419E+01    0.0000000000000000E+00    0.0000000000000000E+00    0.0000000000000000E+00    0.0000000000000000E+00    0.0000000000000000E+00
 -0.5238  -0.3854    0.1503394242354583E-01    0.0000000000000000E+00    0.0000000000000000E+00    0.4171757127239892E+00   -0.9058156143540959E+00    0.0000000000000000E+00    0.0000000000000000E+00    0.0000000000000000E+00    0.0000000000000000E+00    0.0000000000000000E+00
 -0.5248  -0.4026    0.7764635237101604E-02    0.0000000000000000E+00    0.0000000000000000E+00    0.4329494025068927E+00   -0.5118707858626175E+00    0.0000000000000000E+00    0.0000000000000000E+00    0.0000000000000000E+00    0.0000000000000000E+00    0.0000000000000000E+00
 -0.5257  -0.4180    0.7720504697800121E-03    0.0000000000000000E+00    0.0000000000000000E+00    0.4476528182713069E+00   -0.2456900946884481E+00    0.0000000000000000E+00    0.0000000000000000E+00    0.0000000000000000E+00    0.0000000000000000E+00    0.0000000000000000E+00
 -0.5265  -0.4315   -0.5670902193300961E-02    0.0000000000000000E+00    0.0000000000000000E+00    0.4609649516139290E+00   -0.8464860274870099E-01    0.0000000000000000E+00    0.0000000000000000E+00    0.0000000000000000E+00    0.0000000000000000E+00    0.0000000000000000E+00
 -0.5272  -0.4430   -0.1134920786206622E-01    0.0000000000000000E+00    0.0000000000000000E+00    0.4726021179477450E+00   -0.4624763165012216E-02    0.0000000000000000E+00    0.0000000000000000E+00    0.0000000000000000E+00    0.0000000000000000E+00    0.0000000000000000E+00
 -0.5278  -0.4525   -0.1610183178369630E-01    0.0000000000000000E+00    0.0000000000000000E+00    0.4823400122469381E+00    0.1974696572366989E-01    0.0000000000000000E+00    0.0000000000000000E+00    0.0000000000000000E+00    0.0000000000000000E+00    0.0000000000000000E+00
 -0.5282  -0.4599   -0.1982374070946519E-01    0.0000000000000000E+00    0.0000000000000000E+00    0.4900222847880816E+00    0.1452718747221853E-01    0.0000000000000000E+00    0.0000000000000000E+00    0.0000000000000000E+00    0.0000000000000000E+00    0.0000000000000000E+00
 -0.5285  -0.4652   -0.2247151746608320E-01    0.0000000000000000E+00    0.0000000000000000E+00    0.4955543224200595E+00    0.3585380885872031E-02    0.0000000000000000E+00    0.0000000000000000E+00    0.0000000000000000E+00    0.0000000000000000E+00    0.0000000000000000E+00
 -0.5287  -0.4684   -0.2405730120461337E-01    0.0000000000000000E+00    0.0000000000000000E+00    0.4988872030945723E+00   -0.1436743419909562E-03    0.0000000000000000E+00    0.0000000000000000E+00    0.0000000000000000E+00    0.0000000000000000E+00    0.0000000000000000E+00
 -0.5288  -0.4695   -0.2458912124330940E-01    0.0000000000000000E+00    0.0000000000000000E+00    0.5000000000000000E+00    0.0000000000000000E+00    0.0000000000000000E+00    0.0000000000000000E+00    0.0000000000000000E+00    0.0000000000000000E+00    0.0000000000000000E+00
 -0.4684   0.5287    0.2359621446869837E-01    0.0000000000000000E+00    0.0000000000000000E+00   -0.5000000000000000E+00   -0.3011708322928127E-03    0.0000000000000000E+00    0.0000000000000000E+00    0.0000000000000000E+00    0.0000000000000000E+00    0.0000000000000000E+00
 -0.4685   0.5276    0.2412594389672493E-01    0.3184041390204066E-06   -0.3184680979259522E-06   -0.4961784138784046E+00   -0.5403352767467805E-03   -0.2244419795156207E-09   -0.9632957869961170E-09    0.3183244683471753E-13    0.6788948743452483E-13    0.9073632361959738E-11
 -0.4687   0.5244    0.2570395894113138E-01    0.3415798422549797E-05   -0.5709575335499416E-06   -0.4847315415465246E+00   -0.1932018322259177E-02   -0.2017822801849308E-08   -0.9630969025758995E-09    0.3198916825875031E-13    0.9360838926913972E-13    0.3729649878866925E-10
 -0.4690   0.5191    0.2828578207076028E-01    0.1872136155307461E-05    0.8341669891139863E-06   -0.4657218841912985E+00    0.1063861253363733E-02   -0.1532774321297916E-08   -0.9638008305942053E-09   -0.2277171506914755E-13    0.8674744950143420E-13    0.8331240385073269E-10
 -0.4694   0.5117    0.3174137864929828E-01   -0.2354464992572765E-04    0.2746213879146453E-05   -0.4392808130269455E+00    0.2464971643385097E-01    0.1214191428729929E-07   -0.9662504980162412E-09    0.1813636046898992E-12    0.5039718642407820E-13    0.1480163370343179E-09
 -0.4700   0.5022    0.3582844628263586E-01   -0.8727890328985853E-04    0.4332839036830291E-05   -0.4056400546796923E+00    0.8240464464214960E-01    0.4654773219398820E-07   -0.9704278318423132E-09    0.1010689362063166E-11    0.3136380044566067E-14    0.2284020837045597E-09
 -0.4707   0.4907    0.4022539438198618E-01   -0.1890952789258041E-03    0.5036707753251276E-05   -0.3651610309138352E+00    0.1745347959946089E+00    0.1016312830666089E-06   -0.9756483520390047E-09    0.2691362757656357E-11   -0.2830374823403758E-13    0.3227438750280642E-09
 -0.4715   0.4772    0.4457173050152329E-01   -0.3131621416074989E-03    0.4731323079443174E-05   -0.3183643166522589E+00    0.2869393109432770E+00    0.1686751252255472E-06   -0.9807972801978426E-09    0.5265107794194535E-11   -0.1842970220877760E-13    0.4237548541230485E-09
 -0.4724   0.4618    0.4850710007254637E-01   -0.4315272876851938E-03    0.3448748552917194E-05   -0.2659786509506032E+00    0.3940866673066932E+00    0.2326975343708342E-06   -0.9847080408020847E-09    0.8531585160564958E-11   -0.3241330814862664E-13    0.5197259289602130E-09
 -0.4734   0.4446    0.5170376537348394E-01   -0.5103986640973260E-03    0.1437558679369525E-05   -0.2090343729041358E+00    0.4649467359352296E+00    0.2754349595266261E-06   -0.9863991728455146E-09    0.1212829142671623E-10    0.1726483539465917E-13    0.5892372353932807E-09
 -0.4745   0.4256    0.5389122352904409E-01   -0.5177421894381231E-03   -0.9862452311434836E-06   -0.1490058767984610E+00    0.4698901677900173E+00    0.2797444092316893E-06   -0.9851100117932998E-09    0.1563328633213956E-10    0.6956241138666996E-14    0.6002169941621283E-09
 -0.4758   0.4048    0.5486997529017681E-01   -0.4303590658758723E-03   -0.3451318468345190E-05   -0.8795774831918550E-01    0.3873264273350180E+00    0.2331416567238069E-06   -0.9798023347523666E-09    0.1869873700321989E-10    0.4881858806093931E-13    0.5128138330645626E-09
 -0.4771   0.3825    0.5451774655069511E-01   -0.2376028290049259E-03   -0.5692168920798051E-05   -0.2858206865182323E-01    0.2071290827356584E+00    0.1300042960507981E-06   -0.9684138994187075E-09    0.2111653907288513E-10    0.9413303470040546E-13    0.2850515448682422E-09
 -0.4785   0.3587    0.5279460217184292E-01    0.6010404838516384E-04   -0.7582587831950246E-05    0.2602545380596687E-01   -0.7057553609788911E-01   -0.2942779671787775E-07   -0.9472792394243923E-09    0.2279791633252870E-10    0.1124864090762401E-12   -0.1116125525335576E-09
 -0.4800   0.3334    0.4975193715331380E-01    0.4571335105797487E-03   -0.9178858779868813E-05    0.7293670791081858E-01   -0.4407639616720602E+00   -0.2420667900418405E-06   -0.9112881525774608E-09    0.2367757379051483E-10    0.1905836599647159E-12   -0.6743628711003424E-09
 -0.4816   0.3069    0.4553955756669149E-01    0.9490969764213531E-03   -0.1061149252228450E-04    0.1101805532188025E+00   -0.8993843033140227E+00   -0.5055815490047107E-06   -0.8551297690784221E-09    0.2359987205657887E-10    0.2529712550547458E-12   -0.1357662503254087E-08
 -0.4832   0.2791    0.4039936301839223E-01    0.1536029208993477E-02   -0.1201182168968535E-04    0.1373716071648758E+00   -0.1446337004155057E+01   -0.8199922357805027E-06   -0.7750540174933374E-09    0.2229715023727152E-10    0.3012312621564206E-12   -0.2079264621590582E-08
 -0.4849   0.2503    0.3464192531895589E-01    0.2221016247768506E-02   -0.1341882375094187E-04    0.1557750927783255E+00   -0.2084208677026851E+01   -0.1187026954390961E-05   -0.6702565377714187E-09    0.1943629285294790E-10    0.4198100200802912E-12   -0.2745435337403457E-08
 -0.4867   0.2206    0.2861754658885188E-01    0.3005605822105151E-02   -0.1477811126398924E-04    0.1677296057192018E+00   -0.2814065845379603E+01   -0.1607568725074643E-05   -0.5432622511569729E-09    0.1463955345837320E-10    0.4793804242453348E-12   -0.3282302055152009E-08
 -0.4885   0.1900    0.2269544448146932E-01    0.3884178784860365E-02   -0.1593988469854852E-04    0.1757778016092834E+00   -0.3630262506066092E+01   -0.2078700398720325E-05   -0.3996044363463458E-09    0.7537845347904693E-11    0.5467432062644662E-12   -0.3654896378602057E-08
 -0.4904   0.1588    0.1725232491263286E-01    0.4839536433852307E-02   -0.1671824927937072E-04    0.1819897276490488E+00   -0.4516432049516645E+01   -0.2591260675236666E-05   -0.2472105471718056E-09   -0.2187472425418946E-11    0.5958566973163215E-12   -0.3866484646125254E-08
 -0.4923   0.1269    0.1266011033409499E-01    0.5841393179465916E-02   -0.1693065599210670E-04    0.1877207989407755E+00   -0.5444161723509318E+01   -0.3129073081021077E-05   -0.9581437032668561E-10   -0.1461355342291526E-10    0.6535050278699828E-12   -0.3944379200213413E-08
 -0.4942   0.0947    0.9263785428775335E-02    0.6848148434671937E-02   -0.1644947831791862E-04    0.1937165656721290E+00   -0.6374707463376397E+01   -0.3669839254892310E-05    0.4363927968986658E-10   -0.2948052912898902E-10    0.6619288450693261E-12   -0.3923097075496373E-08
 -0.4961   0.0622    0.7348813001254928E-02    0.7810799104463614E-02   -0.1520345728925522E-04    0.2003400441985176E+00   -0.7262647962265726E+01   -0.4187269494029713E-05    0.1600271859469871E-09   -0.4611491744022089E-10    0.6416395192943014E-12   -0.3833426317698119E-08
 -0.4981   0.0296    0.7104536096863011E-02    0.8677360274710397E-02   -0.1317737867886888E-04    0.2077621948310992E+00   -0.8059987868368379E+01   -0.4653424561661998E-05    0.2431066944974525E-09   -0.6354908266281711E-10    0.5839426164833128E-12   -0.3699803111448241E-08
 -0.5000  -0.0031    0.8591143124067375E-02    0.9396646832926025E-02   -0.1038698121436150E-04    0.2160711564107364E+00   -0.8719646781979250E+01   -0.5040770985638897E-05    0.2849511390734527E-09   -0.8055811573370875E-10    0.4818159760056062E-12   -0.3539421470320769E-08
 -0.5019  -0.0356    0.1171551956289233E-01    0.9921274430296594E-02   -0.6877327693323978E-05    0.2253197789331882E+00   -0.9198217181464210E+01   -0.5323779699508636E-05    0.2810976468953230E-09   -0.9592943106540019E-10    0.3434197370921765E-12   -0.3363593518296293E-08
 -0.5038  -0.0678    0.1621932813611717E-01    0.1021048445060654E-01   -0.2723590530191144E-05    0.2355410785214812E+00   -0.9458557056083150E+01   -0.5480457081418491E-05    0.2311014140471412E-09   -0.1084470846457464E-09    0.1716474185009531E-12   -0.3179776984253702E-08
 -0.5057  -0.0996    0.2168287763739753E-01    0.1023362960171280E-01    0.1942247223389814E-05    0.2467506173536193E+00   -0.9472969295021747E+01   -0.5494221739123663E-05    0.1392738194737342E-09   -0.1170945562734005E-09   -0.4016058319233906E-13   -0.2992730759390771E-08
 -0.5076  -0.1309    0.2754973176557605E-01    0.9974668260383937E-02    0.6910201521063424E-05    0.2589445765353806E+00   -0.9227297214978435E+01   -0.5356326820870591E-05    0.1424948874173548E-10   -0.1210397893025572E-09   -0.2464486947850730E-12   -0.2805009865006203E-08
 -0.5094  -0.1614    0.3317656728577969E-01    0.9437109051333365E-02    0.1187563368975219E-04    0.2720970384346507E+00   -0.8725384672814656E+01   -0.5068546859308933E-05   -0.1316076587987158E-09   -0.1198343646535704E-09   -0.4577449530529520E-12   -0.2618076384158785E-08
 -0.5112  -0.1912    0.3790815286955879E-01    0.8647811929518964E-02    0.1645705957131819E-04    0.2861579557711800E+00   -0.7992481385967900E+01   -0.4645222707914015E-05   -0.2836504364722714E-09   -0.1134476956821118E-09   -0.6483563685932836E-12   -0.2432069264729497E-08
 -0.5129  -0.2200    0.4116801399778475E-01    0.7657561284808053E-02    0.2024682947081987E-04    0.3010524273828449E+00   -0.7075656086784091E+01   -0.4113616844910909E-05   -0.4270678741202794E-09   -0.1024298978968829E-09   -0.8507083926190262E-12   -0.2246342277120728E-08
 -0.5145  -0.2477    0.4254544577547247E-01    0.6536781598169887E-02    0.2289199529948260E-04    0.3166812157145829E+00   -0.6039818790938448E+01   -0.3511581108913119E-05   -0.5494270802208767E-09   -0.8789580174806133E-10   -0.1016201012227214E-11   -0.2060107084922436E-08
 -0.5161  -0.2743    0.4185484987135951E-01    0.5366369368963298E-02    0.2417805434770694E-04    0.3329216895345929E+00   -0.4959283874928929E+01   -0.2882669293337761E-05   -0.6425596305037473E-09   -0.7134032253830469E-10   -0.1112956948823296E-11   -0.1872143030878792E-08
 -0.5176  -0.2995    0.3914954668879470E-01    0.4225646779564694E-02    0.2407852219284341E-04    0.3496277776790434E+00   -0.3906799863093391E+01   -0.2269579563064549E-05   -0.7038580759899382E-09   -0.5446726403235402E-10   -0.1175920472107350E-11   -0.1681860928304246E-08
 -0.5190  -0.3234    0.3468739245020282E-01    0.3180877733758968E-02    0.2275624641565448E-04    0.3666275546888264E+00   -0.2943067320615325E+01   -0.1708029914131185E-05   -0.7358854844929930E-09   -0.3880007426459997E-10   -0.1196959198423997E-11   -0.1490182572824739E-08
 -0.5203  -0.3457    0.2886290004499737E-01    0.2277621314420920E-02    0.2050234838006134E-04    0.3837181810812685E+00   -0.2109829767349287E+01   -0.1222535879717571E-05   -0.7447707797703096E-09   -0.2545233468431718E-10   -0.1185718190299667E-11   -0.1297275989756153E-08
 -0.5216  -0.3664    0.2212969968591389E-01    0.1538577260564089E-02    0.1766001603949301E-04    0.4006600452405239E+00   -0.1427880787355775E+01   -0.8253576244639468E-06   -0.7381572297848749E-09   -0.1499345786415418E-10   -0.1139657812565531E-11   -0.1106545771678569E-08
 -0.5227  -0.3854    0.1493549871095466E-01    0.9663846125639347E-03    0.1453371153338639E-04    0.4171741992670888E+00   -0.8996688198583712E+00   -0.5178724717277041E-06   -0.7232794155265232E-09   -0.7474933866324918E-11   -0.1093763968285089E-11   -0.9203185123707325E-09
 -0.5237  -0.4027    0.7680926762381694E-02    0.5492914143079035E-03    0.1135381505704633E-04    0.4329479578913834E+00   -0.5143915896291616E+00   -0.2938045955170101E-06   -0.7058148059069236E-09   -0.2569755172543431E-11   -0.1059215215537535E-11   -0.7432634334392230E-09
 -0.5246  -0.4181    0.7027602801043774E-03    0.2671947630256256E-03    0.8249301421496124E-05    0.4476515156087153E+00   -0.2535679456928763E+00   -0.1422777868530549E-06   -0.6894840098164989E-09    0.2553131317473145E-12   -0.1007360861393636E-11   -0.5788208506246617E-09
 -0.5254  -0.4316   -0.5726501550402579E-02    0.9612607777276054E-04    0.5310845560332971E-05    0.4609638586714636E+00   -0.9501002494933007E-01   -0.5049909608346655E-07   -0.6761382131265092E-09    0.1588115056128103E-11   -0.9835465775154262E-12   -0.4309746032271633E-09
 -0.5261  -0.4431   -0.1139233287717270E-01    0.1041872641679108E-04    0.2626987034642753E-05    0.4726012803011049E+00   -0.1493435440687138E-01   -0.4596514636395459E-08   -0.6663670379380982E-09    0.1968380319850027E-11   -0.9410597301418022E-12   -0.3017444020342319E-09
 -0.5267  -0.4525   -0.1613474854226775E-01   -0.1692228652201684E-04    0.4409058785699368E-06    0.4823394407481220E+00    0.1180691527676336E-01    0.9769932605731424E-08   -0.6596449818666028E-09    0.1853225906067735E-11   -0.9375018122925738E-12   -0.1944062332989716E-09
 -0.5271  -0.4600   -0.1985068446134277E-01   -0.1349299053014848E-04   -0.9141845155252871E-06    0.4900219525910062E+00    0.1059022785310012E-01    0.7631490862260991E-08   -0.6550740019872769E-09    0.1577004152264472E-11   -0.9142409052032008E-12   -0.1095018238410350E-09
 -0.5274  -0.4653   -0.2249902884074835E-01   -0.3753156576516040E-05   -0.1027781465375569E-05    0.4955541731394356E+00    0.3535923576808109E-02    0.1977408109450379E-08   -0.6507238404802190E-09    0.1306640559639582E-11   -0.9704997222526046E-12   -0.4888251760835904E-10
 -0.5276  -0.4685   -0.2408708706369781E-01   -0.8960758608503759E-07   -0.8990279373831449E-07    0.4988871657036937E+00    0.4899672306536953E-03    0.7890477302222198E-10   -0.6462599434005518E-09    0.6771463815016809E-12   -0.6781589179105652E-12   -0.1222807266684431E-10
 -0.5277  -0.4695   -0.2461894319025801E-01    0.0000000000000000E+00    0.0000000000000000E+00    0.5000000000000000E+00   -0.1430902555256783E-03    0.0000000000000000E+00    0.0000000000000000E+00    0.0000000000000000E+00    0.0000000000000000E+00    0.0000000000000000E+00
 -0.4652   0.5285    0.2368180316143672E-01    0.0000000000000000E+00    0.0000000000000000E+00   -0.5000000000000000E+00   -0.4438293449006448E-02    0.0000000000000000E+00    0.0000000000000000E+00    0.0000000000000000E+00    0.0000000000000000E+00    0.0000000000000000E+00
 -0.4653   0.5274    0.2421239427083574E-01    0.5709128882515684E-06   -0.3416006791035896E-05   -0.4961772723652421E+00   -0.1932139257767334E-02   -0.2017953086536823E-08   -0.9629713856830133E-09    0.7108728753216220E-13    0.1461266004032513E-12    0.9416988022703521E-11
 -0.4655   0.5242    0.2578931703467884E-01    0.2290377916215523E-05   -0.2289835563960641E-05   -0.4847270062696293E+00    0.4256039645597270E-02   -0.1468375250324103E-07   -0.9629574241405876E-09    0.1029445625966297E-12    0.3327676675879410E-12    0.3730019201494961E-10
 -0.4658   0.5189    0.2835771488306118E-01   -0.1820737183389533E-04    0.1538117611427874E-04   -0.4657119105841230E+00    0.1438226360953069E-01    0.1632601223340532E-07   -0.9636471429846916E-09    0.2210185159889910E-12    0.2059758613670581E-12    0.8358653786483261E-10
 -0.4662   0.5115    0.3178786035695243E-01   -0.1199132005229590E-03    0.4219068422435289E-04   -0.4392638665011355E+00    0.3765166180524410E-01    0.2336076759028361E-06   -0.9658009218760366E-09    0.1275320127280821E-11   -0.1880596373071697E-12    0.1479459887931966E-09
 -0.4668   0.5020    0.3584945379648880E-01   -0.3551785574159692E-03    0.6515208816779640E-04   -0.4056151759868118E+00    0.8577142035811608E-01    0.7544928647490382E-06   -0.9695823761923794E-09    0.4551852276178658E-11   -0.6774719674140783E-12    0.2284927837215012E-09
 -0.4675   0.4905    0.4022928943503644E-01   -0.7275488626527443E-03    0.7586895354487252E-04   -0.3651274085396700E+00    0.1613064282051053E+00    0.1583044203998200E-05   -0.9744385784382636E-09    0.1099045680852395E-10   -0.1115951081542832E-11    0.3230101672246910E-09
 -0.4683   0.4770    0.4457072627210960E-01   -0.1181206291911442E-02    0.7117378920974270E-04   -0.3183205438443272E+00    0.2536713322444645E+00    0.2592726131010721E-05   -0.9793455213458202E-09    0.2077267177713615E-10   -0.1395716875407516E-11    0.4245426926674511E-09
 -0.4692   0.4616    0.4851336072717558E-01   -0.1612231193580003E-02    0.5162102250627665E-04   -0.2659221084748870E+00    0.3409907870012573E+00    0.3554135930617720E-05   -0.9831900849022190E-09    0.3323148700662415E-10   -0.1465062446359688E-11    0.5203651468055348E-09