 title="result"
 variables="x","y","P","u","v","t","omega","psi","RES1","RES2","RES3","RES4"
zone,j= 49,i= 49,f=point
 -0.4475   0.5475    0.2422235427451161E-01    0.0000000000000000E+00    0.0000000000000000E+00   -0.5000000000000000E+00    0.0000000000000000E+00    0.0000000000000000E+00    0.0000000000000000E+00    0.0000000000000000E+00    0.0000000000000000E+00    0.0000000000000000E+00
 -0.4476   0.5465    0.2475065274342067E-01    0.0000000000000000E+00    0.0000000000000000E+00   -0.4960484363226175E+00   -0.2415837316085377E-03    0.0000000000000000E+00    0.0000000000000000E+00    0.0000000000000000E+00    0.0000000000000000E+00    0.0000000000000000E+00
 -0.4479   0.5433    0.2632132127508471E-01    0.0000000000000000E+00    0.0000000000000000E+00   -0.4842123154723207E+00   -0.4347949151572869E-02    0.0000000000000000E+00    0.0000000000000000E+00    0.0000000000000000E+00    0.0000000000000000E+00    0.0000000000000000E+00
 -0.4484   0.5380    0.2888822001195675E-01    0.0000000000000000E+00    0.0000000000000000E+00   -0.4645570043083966E+00   -0.7258313061753039E-02    0.0000000000000000E+00    0.0000000000000000E+00    0.0000000000000000E+00    0.0000000000000000E+00    0.0000000000000000E+00
 -0.4492   0.5306    0.3232404725456933E-01    0.0000000000000000E+00    0.0000000000000000E+00   -0.4372218493482950E+00    0.7021950540218981E-02    0.0000000000000000E+00    0.0000000000000000E+00    0.0000000000000000E+00    0.0000000000000000E+00    0.0000000000000000E+00
 -0.4501   0.5211    0.3639346465658753E-01    0.0000000000000000E+00    0.0000000000000000E+00   -0.4024582275766576E+00    0.5060952955524264E-01    0.0000000000000000E+00    0.0000000000000000E+00    0.0000000000000000E+00    0.0000000000000000E+00    0.0000000000000000E+00
 -0.4513   0.5096    0.4078508153821494E-01    0.0000000000000000E+00    0.0000000000000000E+00   -0.3606703475947882E+00    0.1240527791218655E+00    0.0000000000000000E+00    0.0000000000000000E+00    0.0000000000000000E+00    0.0000000000000000E+00    0.0000000000000000E+00
 -0.4526   0.4962    0.4514518454029068E-01    0.0000000000000000E+00    0.0000000000000000E+00   -0.3124595389239744E+00    0.2156351901711568E+00    0.0000000000000000E+00    0.0000000000000000E+00    0.0000000000000000E+00    0.0000000000000000E+00    0.0000000000000000E+00
 -0.4542   0.4809    0.4911279103641591E-01    0.0000000000000000E+00    0.0000000000000000E+00   -0.2586855516734126E+00    0.3038350447251172E+00    0.0000000000000000E+00    0.0000000000000000E+00    0.0000000000000000E+00    0.0000000000000000E+00    0.0000000000000000E+00
 -0.4559   0.4637    0.5235049258266473E-01    0.0000000000000000E+00    0.0000000000000000E+00   -0.2005598994002173E+00    0.3618479468462972E+00    0.0000000000000000E+00    0.0000000000000000E+00    0.0000000000000000E+00    0.0000000000000000E+00    0.0000000000000000E+00
 -0.4578   0.4447    0.5457187277170379E-01    0.0000000000000000E+00    0.0000000000000000E+00   -0.1397650079234173E+00    0.3630067332696113E+00    0.0000000000000000E+00    0.0000000000000000E+00    0.0000000000000000E+00    0.0000000000000000E+00    0.0000000000000000E+00
 -0.4599   0.4241    0.5556197942380174E-01    0.0000000000000000E+00    0.0000000000000000E+00   -0.7854828692969677E-01    0.2861362743559229E+00    0.0000000000000000E+00    0.0000000000000000E+00    0.0000000000000000E+00    0.0000000000000000E+00    0.0000000000000000E+00
 -0.4621   0.4018    0.5519132213407735E-01    0.0000000000000000E+00    0.0000000000000000E+00   -0.1968798342923643E-01    0.1189455262685223E+00    0.0000000000000000E+00    0.0000000000000000E+00    0.0000000000000000E+00    0.0000000000000000E+00    0.0000000000000000E+00
 -0.4645   0.3780    0.5342434822624777E-01    0.0000000000000000E+00    0.0000000000000000E+00    0.3379033838530372E-01   -0.1421296185685544E+00    0.0000000000000000E+00    0.0000000000000000E+00    0.0000000000000000E+00    0.0000000000000000E+00    0.0000000000000000E+00
 -0.4670   0.3529    0.5032483396878910E-01    0.0000000000000000E+00    0.0000000000000000E+00    0.7918949054717278E-01   -0.4956995859527391E+00    0.0000000000000000E+00    0.0000000000000000E+00    0.0000000000000000E+00    0.0000000000000000E+00    0.0000000000000000E+00
 -0.4697   0.3264    0.4605500611854100E-01    0.0000000000000000E+00    0.0000000000000000E+00    0.1148565305695470E+00   -0.9403638911028621E+00    0.0000000000000000E+00    0.0000000000000000E+00    0.0000000000000000E+00    0.0000000000000000E+00    0.0000000000000000E+00
 -0.4725   0.2988    0.4086325798358582E-01    0.0000000000000000E+00    0.0000000000000000E+00    0.1406901916717300E+00   -0.1477617817042938E+01    0.0000000000000000E+00    0.0000000000000000E+00    0.0000000000000000E+00    0.0000000000000000E+00    0.0000000000000000E+00
 -0.4754   0.2701    0.3506013178827417E-01    0.0000000000000000E+00    0.0000000000000000E+00    0.1581085138378702E+00   -0.2111016656815123E+01    0.0000000000000000E+00    0.0000000000000000E+00    0.0000000000000000E+00    0.0000000000000000E+00    0.0000000000000000E+00
 -0.4783   0.2404    0.2899262617537167E-01    0.0000000000000000E+00    0.0000000000000000E+00    0.1694539627123376E+00   -0.2842280685985901E+01    0.0000000000000000E+00    0.0000000000000000E+00    0.0000000000000000E+00    0.0000000000000000E+00    0.0000000000000000E+00
 -0.4814   0.2099    0.2302667311000476E-01    0.0000000000000000E+00    0.0000000000000000E+00    0.1771784765527439E+00   -0.3666270146345247E+01    0.0000000000000000E+00    0.0000000000000000E+00    0.0000000000000000E+00    0.0000000000000000E+00    0.0000000000000000E+00
 -0.4845   0.1788    0.1753745499185592E-01    0.0000000000000000E+00    0.0000000000000000E+00    0.1832397723605379E+00   -0.4567031445890801E+01    0.0000000000000000E+00    0.0000000000000000E+00    0.0000000000000000E+00    0.0000000000000000E+00    0.0000000000000000E+00
 -0.4877   0.1471    0.1289765787273388E-01    0.0000000000000000E+00    0.0000000000000000E+00    0.1889056179370505E+00   -0.5516476392047101E+01    0.0000000000000000E+00    0.0000000000000000E+00    0.0000000000000000E+00    0.0000000000000000E+00    0.0000000000000000E+00
 -0.4910   0.1150    0.9455659402102570E-02    0.0000000000000000E+00    0.0000000000000000E+00    0.1948695837076680E+00   -0.6475999832414926E+01    0.0000000000000000E+00    0.0000000000000000E+00    0.0000000000000000E+00    0.0000000000000000E+00    0.0000000000000000E+00
 -0.4942   0.0826    0.7503385015021317E-02    0.0000000000000000E+00    0.0000000000000000E+00    0.2014696065992024E+00   -0.7400004944694105E+01    0.0000000000000000E+00    0.0000000000000000E+00    0.0000000000000000E+00    0.0000000000000000E+00    0.0000000000000000E+00
 -0.4975   0.0500    0.7240252242063750E-02    0.0000000000000000E+00    0.0000000000000000E+00    0.2088663601106964E+00   -0.8239868683937814E+01    0.0000000000000000E+00    0.0000000000000000E+00    0.0000000000000000E+00    0.0000000000000000E+00    0.0000000000000000E+00
 -0.5008   0.0175    0.8740295131706939E-02    0.0000000000000000E+00    0.0000000000000000E+00    0.2171442601111537E+00   -0.8947294893884461E+01    0.0000000000000000E+00    0.0000000000000000E+00    0.0000000000000000E+00    0.0000000000000000E+00    0.0000000000000000E+00
 -0.5040  -0.0149    0.1192745478288351E-01    0.0000000000000000E+00    0.0000000000000000E+00    0.2263549859844372E+00   -0.9476918655431165E+01    0.0000000000000000E+00    0.0000000000000000E+00    0.0000000000000000E+00    0.0000000000000000E+00    0.0000000000000000E+00
 -0.5073  -0.0470    0.1656184500307251E-01    0.0000000000000000E+00    0.0000000000000000E+00    0.2365313897815239E+00   -0.9788745438071967E+01    0.0000000000000000E+00    0.0000000000000000E+00    0.0000000000000000E+00    0.0000000000000000E+00    0.0000000000000000E+00
 -0.5104  -0.0787    0.2224044273363065E-01    0.0000000000000000E+00    0.0000000000000000E+00    0.2476893730848514E+00   -0.9851279782628774E+01    0.0000000000000000E+00    0.0000000000000000E+00    0.0000000000000000E+00    0.0000000000000000E+00    0.0000000000000000E+00
 -0.5136  -0.1099    0.2841726412085649E-01    0.0000000000000000E+00    0.0000000000000000E+00    0.2598257830669972E+00   -0.9645790115996181E+01    0.0000000000000000E+00    0.0000000000000000E+00    0.0000000000000000E+00    0.0000000000000000E+00    0.0000000000000000E+00
 -0.5166  -0.1404    0.3444859939313713E-01    0.0000000000000000E+00    0.0000000000000000E+00    0.2729155672838285E+00   -0.9171308104163524E+01    0.0000000000000000E+00    0.0000000000000000E+00    0.0000000000000000E+00    0.0000000000000000E+00    0.0000000000000000E+00
 -0.5196  -0.1700    0.3966471363498380E-01    0.0000000000000000E+00    0.0000000000000000E+00    0.2869095908028743E+00   -0.8448908866908146E+01    0.0000000000000000E+00    0.0000000000000000E+00    0.0000000000000000E+00    0.0000000000000000E+00    0.0000000000000000E+00
 -0.5225  -0.1987    0.4346055860400607E-01    0.0000000000000000E+00    0.0000000000000000E+00    0.3017337570308025E+00   -0.7523192701804980E+01    0.0000000000000000E+00    0.0000000000000000E+00    0.0000000000000000E+00    0.0000000000000000E+00    0.0000000000000000E+00
 -0.5253  -0.2264    0.4538702895777752E-01    0.0000000000000000E+00    0.0000000000000000E+00    0.3172894398073499E+00   -0.6459138802995814E+01    0.0000000000000000E+00    0.0000000000000000E+00    0.0000000000000000E+00    0.0000000000000000E+00    0.0000000000000000E+00
 -0.5279  -0.2528    0.4521809563215832E-01    0.0000000000000000E+00    0.0000000000000000E+00    0.3334544952493820E+00   -0.5333935549881317E+01    0.0000000000000000E+00    0.0000000000000000E+00    0.0000000000000000E+00    0.0000000000000000E+00    0.0000000000000000E+00
 -0.5305  -0.2780    0.4297319448895007E-01    0.0000000000000000E+00    0.0000000000000000E+00    0.3500834815883528E+00   -0.4225436097697664E+01    0.0000000000000000E+00    0.0000000000000000E+00    0.0000000000000000E+00    0.0000000000000000E+00    0.0000000000000000E+00
 -0.5329  -0.3018    0.3888915069925105E-01    0.0000000000000000E+00    0.0000000000000000E+00    0.3670056464587756E+00   -0.3200527740208676E+01    0.0000000000000000E+00    0.0000000000000000E+00    0.0000000000000000E+00    0.0000000000000000E+00    0.0000000000000000E+00
 -0.5351  -0.3240    0.3335410999068967E-01    0.0000000000000000E+00    0.0000000000000000E+00    0.3840202124373264E+00   -0.2306835455942403E+01    0.0000000000000000E+00    0.0000000000000000E+00    0.0000000000000000E+00    0.0000000000000000E+00    0.0000000000000000E+00
 -0.5372  -0.3447    0.2682763001115922E-01    0.0000000000000000E+00    0.0000000000000000E+00    0.4008905426551074E+00   -0.1569737541588552E+01    0.0000000000000000E+00    0.0000000000000000E+00    0.0000000000000000E+00    0.0000000000000000E+00    0.0000000000000000E+00
 -0.5391  -0.3636    0.1977074297383519E-01    0.0000000000000000E+00    0.0000000000000000E+00    0.4173410958603353E+00   -0.9944842023536105E+00    0.0000000000000000E+00    0.0000000000000000E+00    0.0000000000000000E+00    0.0000000000000000E+00    0.0000000000000000E+00
 -0.5408  -0.3808    0.1259992657789928E-01    0.0000000000000000E+00    0.0000000000000000E+00    0.4330621160582024E+00   -0.5714978168068504E+00    0.0000000000000000E+00    0.0000000000000000E+00    0.0000000000000000E+00    0.0000000000000000E+00    0.0000000000000000E+00
 -0.5424  -0.3962    0.5666819889415500E-02    0.0000000000000000E+00    0.0000000000000000E+00    0.4477252948445236E+00   -0.2823676592766832E+00    0.0000000000000000E+00    0.0000000000000000E+00    0.0000000000000000E+00    0.0000000000000000E+00    0.0000000000000000E+00
 -0.5437  -0.4096   -0.7435288411073188E-03    0.0000000000000000E+00    0.0000000000000000E+00    0.4610091895755298E+00   -0.1044646863800028E+00    0.0000000000000000E+00    0.0000000000000000E+00    0.0000000000000000E+00    0.0000000000000000E+00    0.0000000000000000E+00
 -0.5449  -0.4211   -0.6406243039536951E-02    0.0000000000000000E+00    0.0000000000000000E+00    0.4726280065830035E+00   -0.1327387790473521E-01    0.0000000000000000E+00    0.0000000000000000E+00    0.0000000000000000E+00    0.0000000000000000E+00    0.0000000000000000E+00
 -0.5458  -0.4305   -0.1115224915720025E-01    0.0000000000000000E+00    0.0000000000000000E+00    0.4823545564939519E+00    0.1730273992688898E-01    0.0000000000000000E+00    0.0000000000000000E+00    0.0000000000000000E+00    0.0000000000000000E+00    0.0000000000000000E+00
 -0.5466  -0.4379   -0.1487032026523823E-01    0.0000000000000000E+00    0.0000000000000000E+00    0.4900298636977888E+00    0.1448747585807258E-01    0.0000000000000000E+00    0.0000000000000000E+00    0.0000000000000000E+00    0.0000000000000000E+00    0.0000000000000000E+00
 -0.5471  -0.4432   -0.1751347679514671E-01    0.0000000000000000E+00    0.0000000000000000E+00    0.4955575872681681E+00    0.3801495208552067E-02    0.0000000000000000E+00    0.0000000000000000E+00    0.0000000000000000E+00    0.0000000000000000E+00    0.0000000000000000E+00
 -0.5474  -0.4464   -0.1909459780565296E-01    0.0000000000000000E+00    0.0000000000000000E+00    0.4988880137043519E+00   -0.1336537292128135E-03    0.0000000000000000E+00    0.0000000000000000E+00    0.0000000000000000E+00    0.0000000000000000E+00    0.0000000000000000E+00
 -0.5475  -0.4475   -0.1962450476271478E-01    0.0000000000000000E+00    0.0000000000000000E+00    0.5000000000000000E+00    0.0000000000000000E+00    0.0000000000000000E+00    0.0000000000000000E+00    0.0000000000000000E+00    0.0000000000000000E+00    0.0000000000000000E+00
 -0.4464   0.5474    0.2427808661965610E-01    0.0000000000000000E+00    0.0000000000000000E+00   -0.5000000000000000E+00   -0.2417099132657029E-03    0.0000000000000000E+00    0.0000000000000000E+00    0.0000000000000000E+00    0.0000000000000000E+00    0.0000000000000000E+00
 -0.4465   0.5463    0.2480617448671552E-01    0.2878523165744397E-06   -0.2879375017132563E-06   -0.4960483535666036E+00   -0.5374727318263663E-03   -0.2012300569997352E-09    0.5582417776737320E-09    0.4294897228661332E-12    0.4470612248452799E-12   -0.6691352008071638E-11
 -0.4468   0.5432    0.2637552167574550E-01    0.3586188122060795E-05   -0.6841708866249225E-06   -0.4842119857746350E+00   -0.2379928101867603E-02   -0.2065330682344534E-08    0.5611426670548703E-09    0.8053601188717785E-12    0.6178156944369739E-12   -0.2683906352371479E-10
 -0.4474   0.5379    0.2893628996585779E-01    0.5210827235724798E-05    0.3226785834783862E-06   -0.4645562752600809E+00   -0.2398036429372941E-02   -0.3263266695732863E-08    0.5640330795735754E-09    0.8385826755219483E-12    0.5886159615275943E-12   -0.6009425422559556E-10
 -0.4481   0.5305    0.3236172946033025E-01   -0.1028324174893873E-04    0.1847747455351821E-05   -0.4372206014260769E+00    0.1221311238866118E-01    0.5045804484681738E-08    0.5666119700167838E-09    0.6913497552218928E-12    0.6159239784864212E-12   -0.1072504429017185E-09
 -0.4491   0.5210    0.3642102079282904E-01   -0.5561615805858056E-04    0.3176890900982367E-05   -0.4024563776528590E+00    0.5330906513783289E-01    0.2950580515981097E-07    0.5692689054523359E-09    0.3353194458211028E-12    0.6328253893128633E-12   -0.1693726790763517E-09
 -0.4502   0.5095    0.4080493305618749E-01   -0.1317694722344833E-03    0.3822925343560413E-05   -0.3606678201854868E+00    0.1220968995261350E+00    0.7073298774686161E-07    0.5719957233557560E-09   -0.2070427163047839E-12    0.6250208683944436E-12   -0.2477417021529149E-09
 -0.4516   0.4961    0.4516077480970773E-01   -0.2267212736630819E-03    0.3647664417376326E-05   -0.3124562211535881E+00    0.2078944842228544E+00    0.1220828949857992E-06    0.5750114551172913E-09   -0.9147717305868497E-12    0.6045199063553497E-12   -0.3450658717096822E-09
 -0.4531   0.4808    0.4912748530464398E-01   -0.3179658888232609E-03    0.2654358776507179E-05   -0.2586812613130960E+00    0.2901396549362987E+00    0.1715055587517267E-06    0.5786129284035546E-09   -0.1763630907980485E-11    0.6608966846011199E-12   -0.4639763712122047E-09
 -0.4548   0.4636    0.5236707201143789E-01   -0.3772577515587711E-03    0.1015235420662253E-05   -0.2005543949089226E+00    0.3428960732332383E+00    0.2037285219521596E-06    0.5833160677572169E-09   -0.2771692597658415E-11    0.6039309677352556E-12   -0.6049033635102674E-09
 -0.4567   0.4446    0.5459206501697230E-01   -0.3763646407606612E-03   -0.1039089274753268E-05   -0.1397580599294379E+00    0.3400647303905304E+00    0.2036430000265003E-06    0.5896786349143812E-09   -0.3983507967930677E-11    0.6251284212499542E-12   -0.7643300437010225E-09
 -0.4588   0.4240    0.5558642123563579E-01   -0.2927407297824651E-03   -0.3222240534765264E-05   -0.7853981306886394E-01    0.2607155628577313E+00    0.1591094608232707E-06    0.5982537399501497E-09   -0.5434076799648579E-11    0.6117432949093171E-12   -0.9273622147976113E-09
 -0.4611   0.4017    0.5521976178910701E-01   -0.1131612370141345E-03   -0.5307544500686803E-05   -0.1967821242164138E-01    0.9241759887540622E-01    0.6310171001101628E-07    0.6092497634863081E-09   -0.7115794065093439E-11    0.6148692666130273E-12   -0.1064017693397368E-08
 -0.4634   0.3779    0.5345626035013248E-01    0.1663747445814202E-03   -0.7163411398927717E-05    0.3380076160703244E-01   -0.1687312793425274E+00   -0.8652376362667319E-07    0.6221306213249900E-09   -0.8988018662670072E-11    0.5567976635312277E-12   -0.1128921969795194E-08
 -0.4660   0.3528    0.5035999735822333E-01    0.5445488866346511E-03   -0.8803416944832632E-05    0.7919957426656221E-01   -0.5216680617404676E+00   -0.2890020357956515E-06    0.6351432192686080E-09   -0.1097923141291091E-10    0.5113340306728276E-12   -0.1070856472940029E-08
 -0.4686   0.3263    0.4609385219036643E-01    0.1019900702442339E-02   -0.1031656499744903E-04    0.1148652237053915E+00   -0.9650583790511531E+00   -0.5435693951803325E-06    0.6450756873110919E-09   -0.1305173330523601E-10    0.4305791834191552E-12   -0.8523951613992331E-09
 -0.4714   0.2987    0.4090669101539138E-01    0.1593889791274172E-02   -0.1180428880460824E-04    0.1406967656916725E+00   -0.1500139112716410E+01   -0.8510109204558769E-06    0.6476135183675069E-09   -0.1516363423714751E-10    0.3680597493449511E-12   -0.4708246570395147E-09
 -0.4743   0.2700    0.3510906652254405E-01    0.2270023103601537E-02   -0.1329374081084558E-04    0.1581128026734179E+00   -0.2129901124007571E+01   -0.1213274961204081E-05    0.6386257182799948E-09   -0.1728874682305204E-10    0.2709360513719616E-12    0.3498370690357966E-10
 -0.4773   0.2403    0.2904739910381913E-01    0.3049743448247946E-02   -0.1472474676452114E-04    0.1694563122990201E+00   -0.2855322249959812E+01   -0.1631189496121715E-05    0.6149528976318042E-09   -0.1939847588117161E-10    0.1580263697675832E-12    0.5974405206665701E-09
 -0.4803   0.2098    0.2308665243056961E-01    0.3927139040813067E-02   -0.1594970329127868E-04    0.1771794777686030E+00   -0.3670494073514498E+01   -0.2101675913604285E-05    0.5750700297901812E-09   -0.2137847537886373E-10    0.2708944180085382E-13    0.1145621235029703E-08
 -0.4835   0.1787    0.1760087927820682E-01    0.4884814557220552E-02   -0.1678682992730606E-04    0.1832399837672384E+00   -0.4558873940056275E+01   -0.2615468864126796E-05    0.5191560722983546E-09   -0.2298286908009040E-10   -0.7847889005319075E-13    0.1627304332951773E-08
 -0.4867   0.1470    0.1296178657066841E-01    0.5892572256073991E-02   -0.1706084246601618E-04    0.1889054240451133E+00   -0.5492132841343137E+01   -0.3156436000710422E-05    0.4487987273482652E-09   -0.2388750308668364E-10   -0.1992850329202156E-12    0.2017112919836667E-08
 -0.4899   0.1149    0.9517052211891405E-02    0.6909196668805405E-02   -0.1664815584111697E-04    0.1948691916713619E+00   -0.6431878083288256E+01   -0.3702489186943077E-05    0.3666653577982792E-09   -0.2373397312016579E-10   -0.2994687831048282E-12    0.2310705362728455E-08
 -0.4932   0.0825    0.7558247369833644E-02    0.7886235762860233E-02   -0.1548007179234660E-04    0.2014691057879189E+00   -0.7333187699339089E+01   -0.4227634168878963E-05    0.2764897824580892E-09   -0.2228639495172047E-10   -0.3694683448074443E-12    0.2517176175831359E-08
 -0.4964   0.0499    0.7284674664582769E-02    0.8772217264789777E-02   -0.1353910700858507E-04    0.2088657806352517E+00   -0.8148523666612355E+01   -0.4704212616484431E-05    0.1826771858781662E-09   -0.1946737215874350E-10   -0.4066885717080027E-12    0.2649031089971277E-08
 -0.4997   0.0174    0.8770431573746846E-02    0.9516197795542004E-02   -0.1083614369074468E-04    0.2171436083574088E+00   -0.8831009608612408E+01   -0.5104822210423164E-05    0.8994516936811081E-10   -0.1546235361971071E-10   -0.3971475925901302E-12    0.2718344375984838E-08
 -0.5030  -0.0150    0.1193961604930358E-01    0.1007050865763734E-01   -0.7405969860286690E-05    0.2263542610284676E+00   -0.9336953945842476E+01   -0.5403787558733487E-05    0.2809599775055460E-11   -0.1057071097321227E-10   -0.3584771368636552E-12    0.2736501060474072E-08
 -0.5062  -0.0471    0.1655265795612381E-01    0.1039332268022424E-01   -0.3309937107428235E-05    0.2365305897731924E+00   -0.9628210754464375E+01   -0.5578541781732539E-05   -0.7492052291058204E-10   -0.5247136058983415E-11   -0.2489831257834751E-12    0.2711402904281845E-08
 -0.5094  -0.0788    0.2220708593514222E-01    0.1045193574433344E-01    0.1338234917408533E-05    0.2476884975142956E+00   -0.9675175263738252E+01   -0.5611402305263289E-05   -0.1407252179369545E-09    0.6106226635438361E-14   -0.1098088633910699E-12    0.2650299887538288E-08
 -0.5125  -0.1100    0.2835787744653093E-01    0.1022722295577914E-01    0.6346628351311610E-05    0.2598248334063611E+00   -0.9460852967921593E+01   -0.5491961394066075E-05   -0.1936324503515330E-09    0.4658828878234544E-11    0.7334757801125136E-13    0.2558476604186399E-08
 -0.5156  -0.1405    0.3436274955847889E-01    0.9718832070549289E-02    0.1142471581688594E-04    0.2729145467356365E+00   -0.8985551445655830E+01   -0.5219916066320140E-05   -0.2343338231791670E-09    0.8283485009030755E-11    0.2619016115090744E-12    0.2440686841867490E-08
 -0.5186  -0.1701    0.3955384940579493E-01    0.8949588154151334E-02    0.1619366859207478E-04    0.2869085033106553E+00   -0.8270842573269913E+01   -0.4807427510447858E-05   -0.2649860504633228E-09    0.1054967224689562E-10    0.4347910920188269E-12    0.2301332176907200E-08
 -0.5214  -0.1988    0.4332819583143789E-01    0.7966942949205472E-02    0.2023333077535453E-04    0.3017326057458490E+00   -0.7360771545580003E+01   -0.4279959939271200E-05   -0.2888564110126168E-09    0.1131694737921407E-10    0.6349087922075114E-12    0.2143810975963056E-08
 -0.5242  -0.2265    0.4523857844327681E-01    0.6839586041286518E-02    0.2316208708518730E-04    0.3172882255229806E+00   -0.6318691806516815E+01   -0.3674421647635038E-05   -0.3094330902619902E-09    0.1064792698457495E-10    0.7892991815694472E-12    0.1971669407602183E-08
 -0.5269  -0.2529    0.4506021489840221E-01    0.5648835120691841E-02    0.2472709912538136E-04    0.3334532157003291E+00   -0.5219326054050596E+01   -0.3034591963748713E-05   -0.3297297782034470E-09    0.8834100118093602E-11    0.9214157214998409E-12    0.1789463598134144E-08
 -0.5294  -0.2781    0.4281287776056872E-01    0.4476546601390762E-02    0.2486383728872957E-04    0.3500821326889501E+00   -0.4137753482135412E+01   -0.2404529469092704E-05   -0.3515033750178809E-09    0.6324607504382129E-11    0.9929695954369322E-12    0.1599920603986837E-08
 -0.5318  -0.3019    0.3873273578794501E-01    0.3392974011273755E-02    0.2370782314609355E-04    0.3670042262457492E+00   -0.3138324112329960E+01   -0.1822105688997704E-05   -0.3751523466877238E-09    0.3600370002132536E-11    0.1057876009014080E-11    0.1407471934139481E-08
 -0.5340  -0.3241    0.3320657865120397E-01    0.2448124144941658E-02    0.2153958290711837E-04    0.3840187275000034E+00   -0.2266847203451985E+01   -0.1314230236932295E-05   -0.3998223765955267E-09    0.1104380475958067E-11    0.1057653964409155E-11    0.1215732594456176E-08
 -0.5361  -0.3448    0.2669227320878842E-01    0.1668657321866767E-02    0.1870713627111815E-04    0.4008890153443757E+00   -0.1547736815027216E+01   -0.8953022131176059E-06   -0.4240060039184534E-09   -0.8680070551214669E-12    0.1070574184858231E-11    0.1029003365154990E-08
 -0.5380  -0.3637    0.1964930566416286E-01    0.1060103308694057E-02    0.1553035267014366E-04    0.4173395691886048E+00   -0.9860916444073646E+00   -0.5682514328208941E-06   -0.4460730361477427E-09   -0.2163581813707793E-11    0.1047467668158220E-11    0.8497208284219404E-09
 -0.5397  -0.3809    0.1249297162222406E-01    0.6123934860881315E-03    0.1225630853293535E-04    0.4330606528950591E+00   -0.5726578405811099E+00   -0.3277125884800039E-06   -0.4648153494046792E-09   -0.2800666165994614E-11    0.1035574404006923E-11    0.6826687010824672E-09
 -0.5413  -0.3963    0.5574227739354185E-02    0.3061048114906543E-03    0.9027843331020587E-05    0.4477239694412788E+00   -0.2895892878296376E+00   -0.1631678174485284E-06   -0.4795653492373209E-09   -0.2898147000163220E-11    0.1003960803380721E-11    0.5294764973684529E-09
 -0.5426  -0.4097   -0.8223074992337633E-03    0.1172708966827657E-03    0.5940779535711796E-05    0.4610080723902274E+00   -0.1147038238160590E+00   -0.6183128159344932E-07   -0.4903799016159338E-09   -0.2643420204950786E-11    0.9960816893528346E-12    0.3928843335734844E-09
 -0.5438  -0.4212   -0.6472238542114875E-02    0.1980422676836487E-04    0.3087085282895079E-05    0.4726271466500285E+00   -0.2382888679982973E-01   -0.9597121947406385E-08   -0.4977656689608700E-09   -0.2232082574327166E-11    0.9800025374540056E-12    0.2748560120821586E-09
 -0.5447  -0.4306   -0.1120757041058302E-01   -0.1408415380025861E-04    0.7140826827023152E-06    0.4823539676570590E+00    0.8939354066959978E-02    0.8287317837022772E-08   -0.5027841836445501E-09   -0.1836437252267231E-11    0.9961788338674893E-12    0.1767503556709960E-09
 -0.5455  -0.4380   -0.1491914996328186E-01   -0.1325107332410916E-04   -0.8174471315420321E-06    0.4900295205329117E+00    0.1016412780111210E-01    0.7539138901647832E-08   -0.5065288305981797E-09   -0.1547286604397513E-11    0.9593870836654972E-12    0.9974796119291418E-10
 -0.5460  -0.4433   -0.1756260627677094E-01   -0.3902179681292267E-05   -0.1048907255313457E-05    0.4955574328469937E+00    0.3593085894713450E-02    0.2068072673363043E-08   -0.5107608355356397E-09   -0.1327646976731489E-11    0.1025671301363440E-11    0.4437395416390100E-10
 -0.5463  -0.4465   -0.1914601309738446E-01   -0.1032268602069655E-06   -0.1035098339604139E-06    0.4988879750101839E+00    0.5162833726740494E-03    0.9006115373435070E-10   -0.5154060298668238E-09   -0.7078866572779452E-12    0.7184983944613643E-12    0.1120424667757844E-10
 -0.5465  -0.4476   -0.1967598035156772E-01    0.0000000000000000E+00    0.0000000000000000E+00    0.5000000000000000E+00   -0.1330731237014592E-03    0.0000000000000000E+00    0.0000000000000000E+00    0.0000000000000000E+00    0.0000000000000000E+00    0.0000000000000000E+00
 -0.4432   0.5471    0.2443182772418117E-01    0.0000000000000000E+00    0.0000000000000000E+00   -0.5000000000000000E+00   -0.4348161695377082E-02    0.0000000000000000E+00    0.0000000000000000E+00    0.0000000000000000E+00    0.0000000000000000E+00    0.0000000000000000E+00
 -0.4433   0.5460    0.2495996839540102E-01    0.6840077834704004E-06   -0.3586212626586579E-05   -0.4960471174986433E+00   -0.2379768845276730E-02   -0.2065375754785081E-08    0.5609896763705130E-09    0.6509831194066729E-12    0.7877875869005679E-12   -0.6707874273398362E-11
 -0.4436   0.5428    0.2652741277736996E-01    0.4844676181059000E-05   -0.4845058769058706E-05   -0.4842070633519233E+00    0.2329576534635526E-02   -0.1861153520971424E-07    0.5621076554522195E-09    0.1846648702008569E-11    0.1898028175600919E-11   -0.2681668082038513E-10
 -0.4442   0.5375    0.2907567989305988E-01   -0.2364883209111171E-05    0.7516954876225219E-05   -0.4645453657819548E+00    0.9235093921992073E-02   -0.1547528622400085E-07    0.5641479800672089E-09    0.2534744983351267E-11    0.2366592165292669E-11   -0.6018994243989217E-10
 -0.4449   0.5301    0.3247670715964774E-01   -0.6731375113632183E-04    0.2861814786865759E-04   -0.4372017856994336E+00    0.2502560643524952E-01    0.1205821136396741E-06    0.5665068934790352E-09    0.2267000823175103E-11    0.2593572058506854E-11   -0.1074136283391036E-09
 -0.4459   0.5207    0.3650928266226097E-01   -0.2349882598470494E-03    0.4769176849800070E-04   -0.4024281747994248E+00    0.5939082350852547E-01    0.4914323318235017E-06    0.5690458798612852E-09    0.1130746104388569E-11    0.2719815692109329E-11   -0.1693190431611979E-09
 -0.4470   0.5092    0.4087151941044193E-01   -0.5122028432145214E-03    0.5734873318266356E-04   -0.3606288585328198E+00    0.1151308239867692E+00    0.1109572465471144E-05    0.5717258715065565E-09   -0.7857794276366903E-12    0.2812814217656445E-11   -0.2478346902701212E-09
 -0.4484   0.4958    0.4521439880425111E-01   -0.8566456564141322E-03    0.5452803274175419E-04   -0.3124046840411216E+00    0.1842828681229245E+00    0.1878991685028255E-05    0.5747218916052343E-09   -0.3363559430979990E-11    0.2843362698068397E-11   -0.3449770122343487E-09
 -0.4499   0.4804    0.4917737821347774E-01   -0.1184612891806705E-02    0.3927784525362218E-04   -0.2586145039384712E+00    0.2492173567149159E+00    0.2614974866729878E-05    0.5783422733773858E-09   -0.6518542650102432E-11    0.2860793199555012E-11   -0.4637692591069609E-09