 title="result"
 variables="x","y","P","u","v","t","omega","psi","RES1","RES2","RES3","RES4"
zone,j= 49,i= 49,f=point
 -0.3210   0.6300    0.2553772106106767E-01    0.0000000000000000E+00    0.0000000000000000E+00   -0.5000000000000000E+00    0.0000000000000000E+00    0.0000000000000000E+00    0.0000000000000000E+00    0.0000000000000000E+00    0.0000000000000000E+00    0.0000000000000000E+00
 -0.3214   0.6290    0.2604352961522007E-01    0.0000000000000000E+00    0.0000000000000000E+00   -0.4954263620997983E+00    0.1303148283087305E-03    0.0000000000000000E+00    0.0000000000000000E+00    0.0000000000000000E+00    0.0000000000000000E+00    0.0000000000000000E+00
 -0.3223   0.6260    0.2752325389011194E-01    0.0000000000000000E+00    0.0000000000000000E+00   -0.4817274404170008E+00   -0.4316488419561375E-02    0.0000000000000000E+00    0.0000000000000000E+00    0.0000000000000000E+00    0.0000000000000000E+00    0.0000000000000000E+00
 -0.3240   0.6209    0.2990746578328787E-01    0.0000000000000000E+00    0.0000000000000000E+00   -0.4589837697505812E+00   -0.2608134418421262E-01    0.0000000000000000E+00    0.0000000000000000E+00    0.0000000000000000E+00    0.0000000000000000E+00    0.0000000000000000E+00
 -0.3263   0.6138    0.3311042751215651E-01    0.0000000000000000E+00    0.0000000000000000E+00   -0.4273795631141508E+00   -0.6963276547264984E-01    0.0000000000000000E+00    0.0000000000000000E+00    0.0000000000000000E+00    0.0000000000000000E+00    0.0000000000000000E+00
 -0.3292   0.6048    0.3698229808300840E-01    0.0000000000000000E+00    0.0000000000000000E+00   -0.3872812391299679E+00   -0.1283749873233629E+00    0.0000000000000000E+00    0.0000000000000000E+00    0.0000000000000000E+00    0.0000000000000000E+00    0.0000000000000000E+00
 -0.3328   0.5938    0.4129145355623956E-01    0.0000000000000000E+00    0.0000000000000000E+00   -0.3393464422741526E+00   -0.1906276288384588E+00    0.0000000000000000E+00    0.0000000000000000E+00    0.0000000000000000E+00    0.0000000000000000E+00    0.0000000000000000E+00
 -0.3370   0.5810    0.4572875911220878E-01    0.0000000000000000E+00    0.0000000000000000E+00   -0.2846466984113296E+00   -0.2441737299372537E+00    0.0000000000000000E+00    0.0000000000000000E+00    0.0000000000000000E+00    0.0000000000000000E+00    0.0000000000000000E+00
 -0.3417   0.5663    0.4992374572371189E-01    0.0000000000000000E+00    0.0000000000000000E+00   -0.2247698171109554E+00   -0.2807549266200082E+00    0.0000000000000000E+00    0.0000000000000000E+00    0.0000000000000000E+00    0.0000000000000000E+00    0.0000000000000000E+00
 -0.3471   0.5499    0.5347743883289899E-01    0.0000000000000000E+00    0.0000000000000000E+00   -0.1618560564279482E+00   -0.3004785206881470E+00    0.0000000000000000E+00    0.0000000000000000E+00    0.0000000000000000E+00    0.0000000000000000E+00    0.0000000000000000E+00
 -0.3529   0.5318    0.5601103061387464E-01    0.0000000000000000E+00    0.0000000000000000E+00   -0.9852464572647228E-01   -0.3153092618191652E+00    0.0000000000000000E+00    0.0000000000000000E+00    0.0000000000000000E+00    0.0000000000000000E+00    0.0000000000000000E+00
 -0.3594   0.5120    0.5722593424579187E-01    0.0000000000000000E+00    0.0000000000000000E+00   -0.3766842736064006E-01   -0.3489157559952788E+00    0.0000000000000000E+00    0.0000000000000000E+00    0.0000000000000000E+00    0.0000000000000000E+00    0.0000000000000000E+00
 -0.3663   0.4908    0.5695569958607773E-01    0.0000000000000000E+00    0.0000000000000000E+00    0.1787423519379758E-01   -0.4311876802211206E+00    0.0000000000000000E+00    0.0000000000000000E+00    0.0000000000000000E+00    0.0000000000000000E+00    0.0000000000000000E+00
 -0.3737   0.4680    0.5518808804252472E-01    0.0000000000000000E+00    0.0000000000000000E+00    0.6572971379068647E-01   -0.5895292282415867E+00    0.0000000000000000E+00    0.0000000000000000E+00    0.0000000000000000E+00    0.0000000000000000E+00    0.0000000000000000E+00
 -0.3815   0.4440    0.5204793690383400E-01    0.0000000000000000E+00    0.0000000000000000E+00    0.1044047767101048E+00   -0.8424163046736808E+00    0.0000000000000000E+00    0.0000000000000000E+00    0.0000000000000000E+00    0.0000000000000000E+00    0.0000000000000000E+00
 -0.3897   0.4187    0.4775571681952970E-01    0.0000000000000000E+00    0.0000000000000000E+00    0.1335844825418432E+00   -0.1199100236867824E+01    0.0000000000000000E+00    0.0000000000000000E+00    0.0000000000000000E+00    0.0000000000000000E+00    0.0000000000000000E+00
 -0.3983   0.3923    0.4258610808633498E-01    0.0000000000000000E+00    0.0000000000000000E+00    0.1541679986299983E+00   -0.1663635011568278E+01    0.0000000000000000E+00    0.0000000000000000E+00    0.0000000000000000E+00    0.0000000000000000E+00    0.0000000000000000E+00
 -0.4072   0.3648    0.3684179157698602E-01    0.0000000000000000E+00    0.0000000000000000E+00    0.1679693404051219E+00   -0.2238027094144021E+01    0.0000000000000000E+00    0.0000000000000000E+00    0.0000000000000000E+00    0.0000000000000000E+00    0.0000000000000000E+00
 -0.4164   0.3365    0.3084213890009992E-01    0.0000000000000000E+00    0.0000000000000000E+00    0.1771763176243090E+00   -0.2921573892554256E+01    0.0000000000000000E+00    0.0000000000000000E+00    0.0000000000000000E+00    0.0000000000000000E+00    0.0000000000000000E+00
 -0.4259   0.3074    0.2492064131161871E-01    0.0000000000000000E+00    0.0000000000000000E+00    0.1838031274561243E+00   -0.3707643402940503E+01    0.0000000000000000E+00    0.0000000000000000E+00    0.0000000000000000E+00    0.0000000000000000E+00    0.0000000000000000E+00
 -0.4355   0.2776    0.1942369091118422E-01    0.0000000000000000E+00    0.0000000000000000E+00    0.1893578813417384E+00   -0.4580678219590647E+01    0.0000000000000000E+00    0.0000000000000000E+00    0.0000000000000000E+00    0.0000000000000000E+00    0.0000000000000000E+00
 -0.4454   0.2473    0.1470372627023050E-01    0.0000000000000000E+00    0.0000000000000000E+00    0.1947880659077049E+00   -0.5515199163460283E+01    0.0000000000000000E+00    0.0000000000000000E+00    0.0000000000000000E+00    0.0000000000000000E+00    0.0000000000000000E+00
 -0.4554   0.2166    0.1110195000352949E-01    0.0000000000000000E+00    0.0000000000000000E+00    0.2006092045987375E+00   -0.6477035825771016E+01    0.0000000000000000E+00    0.0000000000000000E+00    0.0000000000000000E+00    0.0000000000000000E+00    0.0000000000000000E+00
 -0.4654   0.1856    0.8921663887562355E-02    0.0000000000000000E+00    0.0000000000000000E+00    0.2070777182807454E+00   -0.7425991398666967E+01    0.0000000000000000E+00    0.0000000000000000E+00    0.0000000000000000E+00    0.0000000000000000E+00    0.0000000000000000E+00
 -0.4755   0.1545    0.8397372664727789E-02    0.0000000000000000E+00    0.0000000000000000E+00    0.2143221689401726E+00   -0.8318751907657235E+01    0.0000000000000000E+00    0.0000000000000000E+00    0.0000000000000000E+00    0.0000000000000000E+00    0.0000000000000000E+00
 -0.4856   0.1234    0.9665297327710739E-02    0.0000000000000000E+00    0.0000000000000000E+00    0.2224156414885214E+00   -0.9111137924289892E+01    0.0000000000000000E+00    0.0000000000000000E+00    0.0000000000000000E+00    0.0000000000000000E+00    0.0000000000000000E+00
 -0.4957   0.0924    0.1273820611339915E-01    0.0000000000000000E+00    0.0000000000000000E+00    0.2314064670819446E+00   -0.9759492869212957E+01    0.0000000000000000E+00    0.0000000000000000E+00    0.0000000000000000E+00    0.0000000000000000E+00    0.0000000000000000E+00
 -0.5057   0.0617    0.1748558953965370E-01    0.0000000000000000E+00    0.0000000000000000E+00    0.2413276466995960E+00   -0.1022177766207353E+02    0.0000000000000000E+00    0.0000000000000000E+00    0.0000000000000000E+00    0.0000000000000000E+00    0.0000000000000000E+00
 -0.5155   0.0314    0.2362067927304032E-01    0.0000000000000000E+00    0.0000000000000000E+00    0.2521974494180987E+00   -0.1045936914121603E+02    0.0000000000000000E+00    0.0000000000000000E+00    0.0000000000000000E+00    0.0000000000000000E+00    0.0000000000000000E+00
 -0.5252   0.0017    0.3069905805685838E-01    0.0000000000000000E+00    0.0000000000000000E+00    0.2640168772834545E+00   -0.1044049840449863E+02    0.0000000000000000E+00    0.0000000000000000E+00    0.0000000000000000E+00    0.0000000000000000E+00    0.0000000000000000E+00
 -0.5347  -0.0275    0.3813693002978973E-01    0.0000000000000000E+00    0.0000000000000000E+00    0.2767663590279318E+00   -0.1014560459634667E+02    0.0000000000000000E+00    0.0000000000000000E+00    0.0000000000000000E+00    0.0000000000000000E+00    0.0000000000000000E+00
 -0.5439  -0.0558    0.4525752934113701E-01    0.0000000000000000E+00    0.0000000000000000E+00    0.2904028497687617E+00   -0.9573800649244037E+01    0.0000000000000000E+00    0.0000000000000000E+00    0.0000000000000000E+00    0.0000000000000000E+00    0.0000000000000000E+00
 -0.5528  -0.0833    0.5136840148804146E-01    0.0000000000000000E+00    0.0000000000000000E+00    0.3048580877134026E+00   -0.8748423459770889E+01    0.0000000000000000E+00    0.0000000000000000E+00    0.0000000000000000E+00    0.0000000000000000E+00    0.0000000000000000E+00
 -0.5614  -0.1097    0.5586039392909326E-01    0.0000000000000000E+00    0.0000000000000000E+00    0.3200383541843122E+00   -0.7718976656582586E+01    0.0000000000000000E+00    0.0000000000000000E+00    0.0000000000000000E+00    0.0000000000000000E+00    0.0000000000000000E+00
 -0.5696  -0.1350    0.5830561539675145E-01    0.0000000000000000E+00    0.0000000000000000E+00    0.3358254436057121E+00   -0.6557278174986843E+01    0.0000000000000000E+00    0.0000000000000000E+00    0.0000000000000000E+00    0.0000000000000000E+00    0.0000000000000000E+00
 -0.5774  -0.1590    0.5852486739191796E-01    0.0000000000000000E+00    0.0000000000000000E+00    0.3520777707283113E+00   -0.5347606746797243E+01    0.0000000000000000E+00    0.0000000000000000E+00    0.0000000000000000E+00    0.0000000000000000E+00    0.0000000000000000E+00
 -0.5848  -0.1817    0.5660206758917890E-01    0.0000000000000000E+00    0.0000000000000000E+00    0.3686300265728591E+00   -0.4173224857388459E+01    0.0000000000000000E+00    0.0000000000000000E+00    0.0000000000000000E+00    0.0000000000000000E+00    0.0000000000000000E+00
 -0.5917  -0.2030    0.5284250179288920E-01    0.0000000000000000E+00    0.0000000000000000E+00    0.3852901295573486E+00   -0.3103476565148301E+01    0.0000000000000000E+00    0.0000000000000000E+00    0.0000000000000000E+00    0.0000000000000000E+00    0.0000000000000000E+00
 -0.5981  -0.2228    0.4769311642923013E-01    0.0000000000000000E+00    0.0000000000000000E+00    0.4018338162745649E+00   -0.2185375215113940E+01    0.0000000000000000E+00    0.0000000000000000E+00    0.0000000000000000E+00    0.0000000000000000E+00    0.0000000000000000E+00
 -0.6040  -0.2409    0.4165408366052813E-01    0.0000000000000000E+00    0.0000000000000000E+00    0.4179997773002282E+00   -0.1441552693734847E+01    0.0000000000000000E+00    0.0000000000000000E+00    0.0000000000000000E+00    0.0000000000000000E+00    0.0000000000000000E+00
 -0.6093  -0.2573    0.3520740235066137E-01    0.0000000000000000E+00    0.0000000000000000E+00    0.4334904103839868E+00   -0.8736864582588381E+00    0.0000000000000000E+00    0.0000000000000000E+00    0.0000000000000000E+00    0.0000000000000000E+00    0.0000000000000000E+00
 -0.6141  -0.2720    0.2877489621754020E-01    0.0000000000000000E+00    0.0000000000000000E+00    0.4479830768744266E+00   -0.4688269295426164E+00    0.0000000000000000E+00    0.0000000000000000E+00    0.0000000000000000E+00    0.0000000000000000E+00    0.0000000000000000E+00
 -0.6183  -0.2848    0.2270400243247423E-01    0.0000000000000000E+00    0.0000000000000000E+00    0.4611530741323760E+00   -0.2055052168117606E+00    0.0000000000000000E+00    0.0000000000000000E+00    0.0000000000000000E+00    0.0000000000000000E+00    0.0000000000000000E+00
 -0.6218  -0.2958    0.1727032959347029E-01    0.0000000000000000E+00    0.0000000000000000E+00    0.4727035462186717E+00   -0.5762882739881020E-01    0.0000000000000000E+00    0.0000000000000000E+00    0.0000000000000000E+00    0.0000000000000000E+00    0.0000000000000000E+00
 -0.6248  -0.3048    0.1268326913324232E-01    0.0000000000000000E+00    0.0000000000000000E+00    0.4823926696179293E+00    0.4549539634056609E-02    0.0000000000000000E+00    0.0000000000000000E+00    0.0000000000000000E+00    0.0000000000000000E+00    0.0000000000000000E+00
 -0.6271  -0.3119    0.9084120931258927E-02    0.0000000000000000E+00    0.0000000000000000E+00    0.4900482424796973E+00    0.1411199996497254E-01    0.0000000000000000E+00    0.0000000000000000E+00    0.0000000000000000E+00    0.0000000000000000E+00    0.0000000000000000E+00
 -0.6287  -0.3170    0.6536476180392714E-02    0.0000000000000000E+00    0.0000000000000000E+00    0.4955652222192630E+00    0.4862712927604215E-02    0.0000000000000000E+00    0.0000000000000000E+00    0.0000000000000000E+00    0.0000000000000000E+00    0.0000000000000000E+00
 -0.6297  -0.3200    0.5022673151374446E-02    0.0000000000000000E+00    0.0000000000000000E+00    0.4988898920925915E+00   -0.8204836767904735E-04    0.0000000000000000E+00    0.0000000000000000E+00    0.0000000000000000E+00    0.0000000000000000E+00    0.0000000000000000E+00
 -0.6300  -0.3210    0.4517118431363831E-02    0.0000000000000000E+00    0.0000000000000000E+00    0.5000000000000000E+00    0.0000000000000000E+00    0.0000000000000000E+00    0.0000000000000000E+00    0.0000000000000000E+00    0.0000000000000000E+00    0.0000000000000000E+00
 -0.3200   0.6297    0.2570405884601935E-01    0.0000000000000000E+00    0.0000000000000000E+00   -0.5000000000000000E+00    0.1302567021666020E-03    0.0000000000000000E+00    0.0000000000000000E+00    0.0000000000000000E+00    0.0000000000000000E+00    0.0000000000000000E+00
 -0.3203   0.6287    0.2620911243549750E-01    0.1195353689485997E-06   -0.1195551485745238E-06   -0.4954262417044124E+00   -0.5888535194460199E-03   -0.7433442471826472E-10    0.1411324076214856E-08    0.1482819943221525E-13    0.7298198503868925E-14   -0.6554226345684144E-11
 -0.3213   0.6256    0.2768934975178729E-01    0.5131792504310145E-05   -0.1503542217363400E-05   -0.4817269546934808E+00   -0.5551464556388332E-02   -0.2627760678366912E-08    0.1411562287195745E-08    0.7326799757179092E-13    0.8388255368085851E-14   -0.2702094841280922E-10
 -0.3230   0.6206    0.3007305995611797E-01    0.2706188089018033E-04   -0.2863724716080932E-05   -0.4589826515726150E+00   -0.2459109969539306E-01   -0.1467599795380315E-07    0.1412651572108015E-08    0.3328153724835303E-13    0.3086246536110338E-13   -0.6005395573188688E-10
 -0.3253   0.6135    0.3326878923779126E-01    0.7138991483090888E-04   -0.3461157095037501E-05   -0.4273775119223315E+00   -0.6385466455682122E-01   -0.3874906510132588E-07    0.1414959693683826E-08   -0.4024992145135187E-12    0.7571027138553177E-13   -0.1059446870510516E-09
 -0.3282   0.6045    0.3712681838344371E-01    0.1321790142777752E-03   -0.3357688015653762E-05   -0.3872779397617833E+00   -0.1186365897278829E+00   -0.7168917708474327E-07    0.1417948983922779E-08   -0.1556886564113569E-11    0.6561418075534675E-13   -0.1616934121317914E-09
 -0.3318   0.5935    0.4141705912623818E-01    0.1974915170238641E-03   -0.2706960745764901E-05   -0.3393416079819795E+00   -0.1784028888778149E+00   -0.1068632586468498E-06    0.1420383195609165E-08   -0.3519292496312332E-11    0.9559020242022598E-13   -0.2233197030077072E-09
 -0.3359   0.5807    0.4583197839876394E-01    0.2546047259720309E-03   -0.1829938638353365E-05   -0.2846401304927680E+00   -0.2315473596724537E+00   -0.1374882390747513E-06    0.1421055684149714E-08   -0.6137357982938241E-11    0.1242391606259829E-12   -0.2815967736768954E-09
 -0.3407   0.5660    0.5000308651678827E-01    0.2948124390675559E-03   -0.9876673845339612E-06   -0.2247614686023169E+00   -0.2700901027142395E+00   -0.1588129053512889E-06    0.1418822183005264E-08   -0.9080368401637173E-11    0.1182465583782211E-12   -0.3203981385757615E-09
 -0.3460   0.5496    0.5353359406580470E-01    0.3181509205384194E-03   -0.5033923112638656E-06   -0.1618460806400434E+00   -0.2939685917234522E+00   -0.1709202822511924E-06    0.1412948449647927E-08   -0.1196216042886888E-10    0.7743718860586668E-13   -0.3178128038516803E-09
 -0.3519   0.5314    0.5604683461583284E-01    0.3370899574187819E-03   -0.6184963058367150E-06   -0.9851341262382120E-01   -0.3145270732186184E+00   -0.1805072842342030E-06    0.1402521808109916E-08   -0.1445523236699719E-10    0.8057790545912269E-15   -0.2467879650636107E-09
 -0.3583   0.5117    0.5724573954717064E-01    0.3764208325375315E-03   -0.1459890342419587E-05   -0.3765650402258673E-01   -0.3543981139026324E+00   -0.2009696022580493E-06    0.1386336096267926E-08   -0.1635120684684299E-10    0.2232589113582151E-14   -0.7942120572312916E-10
 -0.3653   0.4904    0.5696434344966773E-01    0.4675572581810225E-03   -0.2923059313971734E-05    0.1788613342727240E-01   -0.4423863377123616E+00   -0.2492039580478131E-06    0.1362331921751780E-08   -0.1758322307199300E-10   -0.5508440925616753E-13    0.2058368059332238E-09
 -0.3726   0.4677    0.5518996667293332E-01    0.6394279019436003E-03   -0.4766282046266663E-05    0.6574080251046190E-01   -0.6051263976076412E+00   -0.3407841613943154E-06    0.1327443092946634E-08   -0.1819244754841520E-10   -0.6092695792325742E-13    0.6166063909462949E-09
 -0.3805   0.4437    0.5204665427829520E-01    0.9116654235483917E-03   -0.6720224904610877E-05    0.1044143249663177E+00   -0.8608279427995029E+00   -0.4862332330831060E-06    0.1277802844437681E-08   -0.1822456768829639E-10   -0.1217428935440523E-12    0.1139680766426565E-08
 -0.3887   0.4184    0.4775424351396726E-01    0.1294182799779764E-02   -0.8641641651058952E-05    0.1335919720949347E+00   -0.1218758467795112E+01   -0.6908645747169208E-06    0.1209611182051429E-08   -0.1765044360668711E-10   -0.1887587308679883E-12    0.1737665747403305E-08
 -0.3973   0.3919    0.4258694021124417E-01    0.1791297252268951E-02   -0.1049034150170759E-04    0.1541732598337894E+00   -0.1682933722707636E+01   -0.9569876133122678E-06    0.1120154993067279E-08   -0.1633163049241659E-10   -0.2643996133144810E-12    0.2353433427304541E-08
 -0.4062   0.3645    0.3684680585745902E-01    0.2404993650997010E-02   -0.1226793870740807E-04    0.1679725782063169E+00   -0.2255053555050197E+01   -0.1285696980373991E-05    0.1008821481213173E-08   -0.1401777999232579E-10   -0.3432878981080023E-12    0.2923167867485699E-08
 -0.4154   0.3362    0.3085224248785740E-01    0.3134234888279852E-02   -0.1392128606709698E-04    0.1771779960408005E+00   -0.2933883045142784E+01   -0.1676487326241766E-05    0.8774408075118423E-09   -0.1041407238222547E-10   -0.4203859482743155E-12    0.3392694843812327E-08
 -0.4248   0.3070    0.2493553967717714E-01    0.3971600265286050E-02   -0.1534535197696682E-04    0.1838037779505879E+00   -0.3712189371275985E+01   -0.2125442785420879E-05    0.7303617884091285E-09   -0.5185121429440720E-11   -0.4864164626638967E-12    0.3731765456978925E-08
 -0.4345   0.2773    0.1944189166370091E-01    0.4900173345177614E-02   -0.1639522163736794E-04    0.1893579438403692E+00   -0.4573925527783550E+01   -0.2623558004953938E-05    0.5740550847177506E-09    0.1944069905057688E-11   -0.5920819390325960E-12    0.3935664567438239E-08
 -0.4444   0.2469    0.1472276903664713E-01    0.5892550891407213E-02   -0.1694020235996445E-04    0.1947878253625319E+00   -0.5493376254307628E+01   -0.3156183137719729E-05    0.4165522440868763E-09    0.1114610487240597E-10   -0.6417644193845717E-12    0.4020349373291127E-08
 -0.4543   0.2162    0.1111871127264339E-01    0.6912207215851915E-02   -0.1687749532183329E-04    0.2006088095154865E+00   -0.6436472938151526E+01   -0.3703763408371918E-05    0.2670012266836608E-09    0.2232658502521190E-10   -0.6791928131022473E-12    0.4010570972545757E-08
 -0.4644   0.1853    0.8932658609378622E-02    0.7916358210837429E-02   -0.1615216034566016E-04    0.2070772308525350E+00   -0.7363484599122367E+01   -0.4243346005994458E-05    0.1349367770298038E-09    0.3510811086293586E-10   -0.7262107581951227E-12    0.3931656774452952E-08
 -0.4745   0.1542    0.8398941478057774E-02    0.8859062346321160E-02   -0.1473511154038827E-04    0.2143216086014585E+00   -0.8231894250796202E+01   -0.4750272687535605E-05    0.2945679811183766E-10    0.4880670867457582E-10   -0.6687428388829630E-12    0.3805302700547741E-08
 -0.4846   0.1231    0.9653701759906442E-02    0.9693608347386999E-02   -0.1261589525730785E-04    0.2224150105142809E+00   -0.8998617475711463E+01   -0.5199425310918784E-05   -0.4183836610494041E-10    0.6248090933524963E-10   -0.6511041705792309E-12    0.3647466282133416E-08
 -0.4947   0.0921    0.1270962942591042E-01    0.1037398751120427E-01   -0.9780015554535378E-05    0.2314057623899069E+00   -0.9621353024693590E+01   -0.5566059411767963E-05   -0.7383550021389240E-10    0.7508321742122348E-10   -0.5531478053377725E-12    0.3469942121830938E-08
 -0.5047   0.0614    0.1743617214710899E-01    0.1085605841508117E-01   -0.6221083573448552E-05    0.2413268645916687E+00   -0.1005967826912836E+02   -0.5826379328780221E-05   -0.6487326821569273E-10    0.8546785501550858E-10   -0.4444951351434412E-12    0.3280495926988314E-08
 -0.5145   0.0311    0.2354663851125037E-01    0.1109945732629750E-01   -0.1954368650105907E-05    0.2521965874870603E+00   -0.1027680363216550E+02   -0.5958620145697886E-05   -0.1734462616934107E-10    0.9260692213075572E-10   -0.2801925358397739E-12    0.3085155755866431E-08
 -0.5242   0.0013    0.3059702215574788E-01    0.1107122303890427E-01    0.2937023538947773E-05    0.2640159352267224E+00   -0.1024292529212082E+02   -0.5944933731743011E-05    0.6208907780275164E-10    0.9562639569082876E-10   -0.8223977054910847E-13    0.2887424820074980E-08
 -0.5336  -0.0278    0.3800444618203786E-01    0.1075140738802195E-01    0.8268510749339734E-05    0.2767653388050188E+00   -0.9940331305883230E+01   -0.5774486027538288E-05    0.1628651744717269E-09    0.9398637423885248E-10    0.1102451463452780E-12    0.2689286016099857E-08
 -0.5428  -0.0561    0.4509372763064059E-01    0.1013980415244466E-01    0.1372137177430002E-04    0.2904017550643995E+00   -0.9369531677373706E+01   -0.5447011387842886E-05    0.2717574255906019E-09    0.8766543047045161E-10    0.3311656504578764E-12    0.2491850349325975E-08
 -0.5518  -0.0836    0.5117456313850219E-01    0.9261669912598004E-02    0.1886192431697453E-04    0.3048569226616344E+00   -0.8554367189178839E+01   -0.4976006306754003E-05    0.3748925059277042E-09    0.7716771666110844E-10    0.5156708393627696E-12    0.2295950844374839E-08
 -0.5604  -0.1100    0.5564025182387690E-01    0.8169633680185154E-02    0.2319713232433534E-04    0.3200371215949374E+00   -0.7543666434864615E+01   -0.4389677731331108E-05    0.4602563538624871E-09    0.6362044224772490E-10    0.6773887006872314E-12    0.2101118530897783E-08
 -0.5686  -0.1353    0.5806510610661712E-01    0.6939553533354229E-02    0.2628418522587196E-04    0.3358241434111928E+00   -0.6407319780205326E+01   -0.3728846388440368E-05    0.5199881081274782E-09    0.4858358160220178E-10    0.8062578382705965E-12    0.1906543048435516E-08
 -0.5764  -0.1594    0.5827139187066199E-01    0.5660141930743844E-02    0.2783438316612206E-04    0.3520763998179438E+00   -0.5226793786774502E+01   -0.3041228625457950E-05    0.5517464540805150E-09    0.3377409463212189E-10    0.8781864124784988E-12    0.1712531727537936E-08
 -0.5838  -0.1821    0.5634335353630096E-01    0.4418870008214358E-02    0.2778998966111859E-04    0.3686285812776315E+00   -0.4082224656081328E+01   -0.2373985156693654E-05    0.5584773407618648E-09    0.2068958893097772E-10    0.8941458684574854E-12    0.1518379600870534E-08
 -0.5907  -0.2033    0.5258552707243562E-01    0.3288512623196963E-02    0.2631840907807119E-04    0.3852886114229537E+00   -0.3040242753933972E+01   -0.1766279732065801E-05    0.5467513108925459E-09    0.1032188223781816E-10    0.9027084635349070E-12    0.1325566077042817E-08
 -0.5971  -0.2231    0.4744330708185548E-01    0.2318400956713002E-02    0.2374869107126357E-04    0.4018322402713145E+00   -0.2145974328122807E+01   -0.1244754518838912E-05    0.5244561937511882E-09    0.3049685504130650E-11    0.8954503805114200E-12    0.1134775455893799E-08
 -0.6030  -0.2412    0.4141510875655054E-01    0.1532295938119294E-02    0.2045962451771327E-04    0.4179981796324417E+00   -0.1421202541315336E+01   -0.8221417728297942E-06    0.4987751392460105E-09   -0.1330185961379016E-11    0.8214678937079611E-12    0.9485689178578838E-09
 -0.6083  -0.2576    0.3498136105397291E-01    0.9319692380719997E-03    0.1678757672663871E-04    0.4334888516119558E+00   -0.8675300306367743E+00   -0.4994773315206799E-06    0.4748224244344179E-09   -0.3379359292399187E-11    0.7938510959704104E-12    0.7699997896237765E-09
 -0.6131  -0.2723    0.2856287344152337E-01    0.5037749285988895E-03    0.1296437161384592E-04    0.4479816364509456E+00   -0.4724532152198813E+00   -0.2693178807320840E-06    0.4554847436721854E-09   -0.3822562058553025E-11    0.7482695019156438E-12    0.6028704393340467E-09
 -0.6173  -0.2852    0.2250644548703997E-01    0.2249994243019500E-03    0.9134608747658723E-05    0.4611518353062798E+00   -0.2149579179920688E+00   -0.1195819125151918E-06    0.4416253959749206E-09   -0.3352401689582507E-11    0.7349676423018536E-12    0.4505217466449496E-09
 -0.6208  -0.2961    0.1708716106943167E-01    0.6787033048560873E-04    0.5424853662950916E-05    0.4727025747848694E+00   -0.6931986648578424E-01   -0.3521838625573440E-07    0.4327885202992654E-09   -0.2546150790205814E-11    0.7145221914139910E-12    0.3169461498808701E-09
 -0.6238  -0.3051    0.1251315106625431E-01    0.6552638780379690E-06    0.2110096713670616E-05    0.4823919940954400E+00   -0.5892300277844020E-02    0.5767417273839587E-09    0.4276030770786199E-09   -0.1789256243167614E-11    0.7315328898194196E-12    0.2046454533610742E-09
 -0.6260  -0.3122    0.8923116599073905E-02   -0.1185314278409311E-04   -0.3118675645284843E-06    0.4900478444739207E+00    0.7857959801050500E-02    0.6976180962513019E-08    0.4244631370562205E-09   -0.1299496968365510E-11    0.7167311720252673E-12    0.1155588858110790E-09
 -0.6277  -0.3173    0.6376533967884733E-02   -0.4618884479072381E-05   -0.1144636119327960E-05    0.4955650420900959E+00    0.3843439214883964E-02    0.2507449906505221E-08    0.4212882852901861E-09   -0.1034278131889499E-11    0.7794923560788813E-12    0.5155817331230217E-10
 -0.6287  -0.3203    0.4860398469568437E-02   -0.1710613670629857E-06   -0.1711967937147848E-06    0.4988898468801902E+00    0.6445756262298983E-03    0.1461674404371252E-09    0.4177546002268745E-09   -0.5524814546825629E-12    0.5481834604303959E-12    0.1291876994919880E-10
 -0.6290  -0.3214    0.4354659760693557E-02    0.0000000000000000E+00    0.0000000000000000E+00    0.5000000000000000E+00   -0.8160096464099380E-04    0.0000000000000000E+00    0.0000000000000000E+00    0.0000000000000000E+00    0.0000000000000000E+00    0.0000000000000000E+00
 -0.3170   0.6287    0.2621003677539838E-01    0.0000000000000000E+00    0.0000000000000000E+00   -0.5000000000000000E+00   -0.4314751081971198E-02    0.0000000000000000E+00    0.0000000000000000E+00    0.0000000000000000E+00    0.0000000000000000E+00    0.0000000000000000E+00
 -0.3173   0.6277    0.2671004814692475E-01    0.1502569194493012E-05   -0.5130302751760211E-05   -0.4954244549048028E+00   -0.5550231401468115E-02   -0.2626871172571069E-08    0.1411304332080143E-08    0.2011487764547182E-13   -0.3537534848385704E-13   -0.7094466398897825E-11
 -0.3183   0.6246    0.2818348459126026E-01    0.2170628741603610E-04   -0.2171027787936373E-04   -0.4817197668181564E+00   -0.9545735431723820E-02   -0.4601447572751187E-07    0.1411474666312973E-08    0.6819913557498669E-13   -0.6789707684973223E-14   -0.2706031319160696E-10
 -0.3199   0.6196    0.3055973510972287E-01    0.9705400202998533E-04   -0.4083540145886477E-04   -0.4589662048102667E+00   -0.2162170588063425E-01   -0.2182760369474186E-06    0.1412404741774065E-08   -0.2844400062707031E-12    0.2787371028434293E-12   -0.6008744023178192E-10
 -0.3222   0.6125    0.3373476251730199E-01    0.2511780485386893E-03   -0.5117842161814751E-04   -0.4273475167780924E+00   -0.4943705178450909E-01   -0.5687804253967675E-06    0.1414379977721092E-08   -0.2102521282076886E-11    0.7540183755150309E-12   -0.1058208087129087E-09
 -0.3252   0.6035    0.3755447469119665E-01    0.4710990850374630E-03   -0.5073708342094177E-04   -0.3872298334623930E+00   -0.9312527504724205E-01   -0.1060528097806963E-05    0.1417002560427649E-08   -0.6478484415595176E-11    0.1230252011374944E-11   -0.1617238530593479E-09
 -0.3287   0.5925    0.4179126322481794E-01    0.7169285325699983E-03   -0.4218974770973405E-04   -0.3392711234424244E+00   -0.1456653235375638E+00   -0.1600473786858310E-05    0.1419250258982707E-08   -0.1385451822710770E-10    0.1529163948243983E-11   -0.2235170694364630E-09
 -0.3329   0.5797    0.4614198953333949E-01    0.9424628574766449E-03   -0.2962508153963084E-04   -0.2845441735610265E+00   -0.1975198335963758E+00   -0.2085436533237925E-05    0.1419862821067097E-08   -0.2371910307052971E-10    0.1602292951097262E-11   -0.2816202479549723E-09
 -0.3377   0.5650    0.5024385289597785E-01    0.1114807968191505E-02   -0.1747283836432296E-04   -0.2246391147496179E+00   -0.2415529112890855E+00   -0.2443103413062832E-05    0.1417794661187632E-08   -0.3489627684039043E-10    0.1511472370874234E-11   -0.3204670140366517E-09