 title="result"
 variables="x","y","P","u","v","t","omega","psi","RES1","RES2","RES3","RES4"
zone,j= 49,i= 49,f=point
 -0.1983   0.6787    0.2430585833895700E-01    0.0000000000000000E+00    0.0000000000000000E+00   -0.5000000000000000E+00    0.0000000000000000E+00    0.0000000000000000E+00    0.0000000000000000E+00    0.0000000000000000E+00    0.0000000000000000E+00    0.0000000000000000E+00
 -0.1988   0.6778    0.2477296114496218E-01    0.0000000000000000E+00    0.0000000000000000E+00   -0.4949315837806809E+00    0.5013564331970159E-03    0.0000000000000000E+00    0.0000000000000000E+00    0.0000000000000000E+00    0.0000000000000000E+00    0.0000000000000000E+00
 -0.2004   0.6750    0.2611593612653852E-01    0.0000000000000000E+00    0.0000000000000000E+00   -0.4797512164963425E+00   -0.4783020671457452E-02    0.0000000000000000E+00    0.0000000000000000E+00    0.0000000000000000E+00    0.0000000000000000E+00    0.0000000000000000E+00
 -0.2029   0.6703    0.2825362319598742E-01    0.0000000000000000E+00    0.0000000000000000E+00   -0.4545531588399632E+00   -0.4620413855201035E-01    0.0000000000000000E+00    0.0000000000000000E+00    0.0000000000000000E+00    0.0000000000000000E+00    0.0000000000000000E+00
 -0.2065   0.6638    0.3115773364943250E-01    0.0000000000000000E+00    0.0000000000000000E+00   -0.4195650981607136E+00   -0.1462972223875649E+00    0.0000000000000000E+00    0.0000000000000000E+00    0.0000000000000000E+00    0.0000000000000000E+00    0.0000000000000000E+00
 -0.2111   0.6555    0.3477493004443494E-01    0.0000000000000000E+00    0.0000000000000000E+00   -0.3752694372611159E+00   -0.3005595963788976E+00    0.0000000000000000E+00    0.0000000000000000E+00    0.0000000000000000E+00    0.0000000000000000E+00    0.0000000000000000E+00
 -0.2166   0.6453    0.3895718777420924E-01    0.0000000000000000E+00    0.0000000000000000E+00   -0.3225807740120460E+00   -0.4834834247746518E+00    0.0000000000000000E+00    0.0000000000000000E+00    0.0000000000000000E+00    0.0000000000000000E+00    0.0000000000000000E+00
 -0.2231   0.6335    0.4343844052423813E-01    0.0000000000000000E+00    0.0000000000000000E+00   -0.2630343135804212E+00   -0.6587088803043658E+00    0.0000000000000000E+00    0.0000000000000000E+00    0.0000000000000000E+00    0.0000000000000000E+00    0.0000000000000000E+00
 -0.2305   0.6200    0.4783886353578853E-01    0.0000000000000000E+00    0.0000000000000000E+00   -0.1988911316311060E+00   -0.7915727803218424E+00    0.0000000000000000E+00    0.0000000000000000E+00    0.0000000000000000E+00    0.0000000000000000E+00    0.0000000000000000E+00
 -0.2388   0.6048    0.5170749183601429E-01    0.0000000000000000E+00    0.0000000000000000E+00   -0.1330578799766608E+00   -0.8616622729943301E+00    0.0000000000000000E+00    0.0000000000000000E+00    0.0000000000000000E+00    0.0000000000000000E+00    0.0000000000000000E+00
 -0.2480   0.5881    0.5459345069824478E-01    0.0000000000000000E+00    0.0000000000000000E+00   -0.6878222957819045E-01   -0.8725717382438078E+00    0.0000000000000000E+00    0.0000000000000000E+00    0.0000000000000000E+00    0.0000000000000000E+00    0.0000000000000000E+00
 -0.2579   0.5699    0.5613710418639396E-01    0.0000000000000000E+00    0.0000000000000000E+00   -0.9195500853334128E-02   -0.8539195574459711E+00    0.0000000000000000E+00    0.0000000000000000E+00    0.0000000000000000E+00    0.0000000000000000E+00    0.0000000000000000E+00
 -0.2687   0.5503    0.5614696078742223E-01    0.0000000000000000E+00    0.0000000000000000E+00    0.4315069643267642E-01   -0.8522935352694649E+00    0.0000000000000000E+00    0.0000000000000000E+00    0.0000000000000000E+00    0.0000000000000000E+00    0.0000000000000000E+00
 -0.2802   0.5293    0.5462805092331403E-01    0.0000000000000000E+00    0.0000000000000000E+00    0.8662388523333577E-01   -0.9145270172908073E+00    0.0000000000000000E+00    0.0000000000000000E+00    0.0000000000000000E+00    0.0000000000000000E+00    0.0000000000000000E+00
 -0.2923   0.5072    0.5174644659140241E-01    0.0000000000000000E+00    0.0000000000000000E+00    0.1206706415927910E+00   -0.1073283042774543E+01    0.0000000000000000E+00    0.0000000000000000E+00    0.0000000000000000E+00    0.0000000000000000E+00    0.0000000000000000E+00
 -0.3051   0.4838    0.4775880886663496E-01    0.0000000000000000E+00    0.0000000000000000E+00    0.1457940175760011E+00   -0.1343431792644990E+01    0.0000000000000000E+00    0.0000000000000000E+00    0.0000000000000000E+00    0.0000000000000000E+00    0.0000000000000000E+00
 -0.3184   0.4595    0.4295067756144456E-01    0.0000000000000000E+00    0.0000000000000000E+00    0.1633555056926381E+00   -0.1727946168089342E+01    0.0000000000000000E+00    0.0000000000000000E+00    0.0000000000000000E+00    0.0000000000000000E+00    0.0000000000000000E+00
 -0.3323   0.4342    0.3760833093283188E-01    0.0000000000000000E+00    0.0000000000000000E+00    0.1752260855034697E+00   -0.2225124286521976E+01    0.0000000000000000E+00    0.0000000000000000E+00    0.0000000000000000E+00    0.0000000000000000E+00    0.0000000000000000E+00
 -0.3466   0.4080    0.3201645545950727E-01    0.0000000000000000E+00    0.0000000000000000E+00    0.1833671647256288E+00   -0.2831192522483838E+01    0.0000000000000000E+00    0.0000000000000000E+00    0.0000000000000000E+00    0.0000000000000000E+00    0.0000000000000000E+00
 -0.3613   0.3812    0.2646541168921556E-01    0.0000000000000000E+00    0.0000000000000000E+00    0.1894722200122183E+00   -0.3538762876958217E+01    0.0000000000000000E+00    0.0000000000000000E+00    0.0000000000000000E+00    0.0000000000000000E+00    0.0000000000000000E+00
 -0.3764   0.3537    0.2125631839182971E-01    0.0000000000000000E+00    0.0000000000000000E+00    0.1947777985823088E+00   -0.4334362806567380E+01    0.0000000000000000E+00    0.0000000000000000E+00    0.0000000000000000E+00    0.0000000000000000E+00    0.0000000000000000E+00
 -0.3917   0.3257    0.1669941481482301E-01    0.0000000000000000E+00    0.0000000000000000E+00    0.2000610099896800E+00   -0.5197263025638895E+01    0.0000000000000000E+00    0.0000000000000000E+00    0.0000000000000000E+00    0.0000000000000000E+00    0.0000000000000000E+00
 -0.4072   0.2974    0.1310300038638640E-01    0.0000000000000000E+00    0.0000000000000000E+00    0.2057530960179357E+00   -0.6099997562056952E+01    0.0000000000000000E+00    0.0000000000000000E+00    0.0000000000000000E+00    0.0000000000000000E+00    0.0000000000000000E+00
 -0.4228   0.2689    0.1075445783141426E-01    0.0000000000000000E+00    0.0000000000000000E+00    0.2120764464366202E+00   -0.7010045214431739E+01    0.0000000000000000E+00    0.0000000000000000E+00    0.0000000000000000E+00    0.0000000000000000E+00    0.0000000000000000E+00
 -0.4385   0.2402    0.9896765142376829E-02    0.0000000000000000E+00    0.0000000000000000E+00    0.2191479804134685E+00   -0.7891716751127084E+01    0.0000000000000000E+00    0.0000000000000000E+00    0.0000000000000000E+00    0.0000000000000000E+00    0.0000000000000000E+00
 -0.4542   0.2115    0.1070473080407623E-01    0.0000000000000000E+00    0.0000000000000000E+00    0.2270373692538672E+00   -0.8707480837971058E+01    0.0000000000000000E+00    0.0000000000000000E+00    0.0000000000000000E+00    0.0000000000000000E+00    0.0000000000000000E+00
 -0.4699   0.1830    0.1326230286300232E-01    0.0000000000000000E+00    0.0000000000000000E+00    0.2357925816066584E+00   -0.9418420096705592E+01    0.0000000000000000E+00    0.0000000000000000E+00    0.0000000000000000E+00    0.0000000000000000E+00    0.0000000000000000E+00
 -0.4854   0.1546    0.1754083735874533E-01    0.0000000000000000E+00    0.0000000000000000E+00    0.2454480128429839E+00   -0.9984252911638624E+01    0.0000000000000000E+00    0.0000000000000000E+00    0.0000000000000000E+00    0.0000000000000000E+00    0.0000000000000000E+00
 -0.5007   0.1267    0.2337794866397074E-01    0.0000000000000000E+00    0.0000000000000000E+00    0.2560249554713909E+00   -0.1036385093631373E+02    0.0000000000000000E+00    0.0000000000000000E+00    0.0000000000000000E+00    0.0000000000000000E+00    0.0000000000000000E+00
 -0.5157   0.0992    0.3046020291186599E-01    0.0000000000000000E+00    0.0000000000000000E+00    0.2675290557383969E+00   -0.1051743926458660E+02    0.0000000000000000E+00    0.0000000000000000E+00    0.0000000000000000E+00    0.0000000000000000E+00    0.0000000000000000E+00
 -0.5304   0.0724    0.3831748362731884E-01    0.0000000000000000E+00    0.0000000000000000E+00    0.2799467703322017E+00   -0.1041129861535249E+02    0.0000000000000000E+00    0.0000000000000000E+00    0.0000000000000000E+00    0.0000000000000000E+00    0.0000000000000000E+00
 -0.5448   0.0462    0.4634108725562006E-01    0.0000000000000000E+00    0.0000000000000000E+00    0.2932419125146768E+00   -0.1002495365308044E+02    0.0000000000000000E+00    0.0000000000000000E+00    0.0000000000000000E+00    0.0000000000000000E+00    0.0000000000000000E+00
 -0.5586   0.0209    0.5383626425987089E-01    0.0000000000000000E+00    0.0000000000000000E+00    0.3073531146141353E+00   -0.9359382675396455E+01    0.0000000000000000E+00    0.0000000000000000E+00    0.0000000000000000E+00    0.0000000000000000E+00    0.0000000000000000E+00
 -0.5720  -0.0034    0.6011100369752882E-01    0.0000000000000000E+00    0.0000000000000000E+00    0.3221927934606676E+00   -0.8443446762670924E+01    0.0000000000000000E+00    0.0000000000000000E+00    0.0000000000000000E+00    0.0000000000000000E+00    0.0000000000000000E+00
 -0.5847  -0.0268    0.6458650993264070E-01    0.0000000000000000E+00    0.0000000000000000E+00    0.3376476838997659E+00   -0.7335135209103700E+01    0.0000000000000000E+00    0.0000000000000000E+00    0.0000000000000000E+00    0.0000000000000000E+00    0.0000000000000000E+00
 -0.5969  -0.0489    0.6689917448339230E-01    0.0000000000000000E+00    0.0000000000000000E+00    0.3535801936135242E+00   -0.6115479117526738E+01    0.0000000000000000E+00    0.0000000000000000E+00    0.0000000000000000E+00    0.0000000000000000E+00    0.0000000000000000E+00
 -0.6084  -0.0699    0.6695960235982547E-01    0.0000000000000000E+00    0.0000000000000000E+00    0.3698290404030726E+00   -0.4875741836366844E+01    0.0000000000000000E+00    0.0000000000000000E+00    0.0000000000000000E+00    0.0000000000000000E+00    0.0000000000000000E+00
 -0.6191  -0.0895    0.6494792854316640E-01    0.0000000000000000E+00    0.0000000000000000E+00    0.3862074819843072E+00   -0.3701715614220057E+01    0.0000000000000000E+00    0.0000000000000000E+00    0.0000000000000000E+00    0.0000000000000000E+00    0.0000000000000000E+00
 -0.6291  -0.1077    0.6125042177882431E-01    0.0000000000000000E+00    0.0000000000000000E+00    0.4024985918039994E+00   -0.2660290977737672E+01    0.0000000000000000E+00    0.0000000000000000E+00    0.0000000000000000E+00    0.0000000000000000E+00    0.0000000000000000E+00
 -0.6382  -0.1244    0.5636475672829198E-01    0.0000000000000000E+00    0.0000000000000000E+00    0.4184495850299692E+00   -0.1792388117371281E+01    0.0000000000000000E+00    0.0000000000000000E+00    0.0000000000000000E+00    0.0000000000000000E+00    0.0000000000000000E+00
 -0.6465  -0.1396    0.5080828814122477E-01    0.0000000000000000E+00    0.0000000000000000E+00    0.4337700867184438E+00   -0.1113117965109568E+01    0.0000000000000000E+00    0.0000000000000000E+00    0.0000000000000000E+00    0.0000000000000000E+00    0.0000000000000000E+00
 -0.6540  -0.1531    0.4505344211204392E-01    0.0000000000000000E+00    0.0000000000000000E+00    0.4481402518344107E+00   -0.6172322484915889E+00    0.0000000000000000E+00    0.0000000000000000E+00    0.0000000000000000E+00    0.0000000000000000E+00    0.0000000000000000E+00
 -0.6604  -0.1650    0.3949730960701546E-01    0.0000000000000000E+00    0.0000000000000000E+00    0.4612317915148629E+00   -0.2860951760283018E+00    0.0000000000000000E+00    0.0000000000000000E+00    0.0000000000000000E+00    0.0000000000000000E+00    0.0000000000000000E+00
 -0.6660  -0.1751    0.3445665078204740E-01    0.0000000000000000E+00    0.0000000000000000E+00    0.4727385512033060E+00   -0.9311426571645356E-01    0.0000000000000000E+00    0.0000000000000000E+00    0.0000000000000000E+00    0.0000000000000000E+00    0.0000000000000000E+00
 -0.6705  -0.1834    0.3017252762377235E-01    0.0000000000000000E+00    0.0000000000000000E+00    0.4824068172701036E+00   -0.5770348362237311E-02    0.0000000000000000E+00    0.0000000000000000E+00    0.0000000000000000E+00    0.0000000000000000E+00    0.0000000000000000E+00
 -0.6741  -0.1899    0.2680850851367960E-01    0.0000000000000000E+00    0.0000000000000000E+00    0.4900537249884205E+00    0.1370586654060005E-01    0.0000000000000000E+00    0.0000000000000000E+00    0.0000000000000000E+00    0.0000000000000000E+00    0.0000000000000000E+00
 -0.6767  -0.1946    0.2443924013831279E-01    0.0000000000000000E+00    0.0000000000000000E+00    0.4955672240654148E+00    0.5677739763768070E-02    0.0000000000000000E+00    0.0000000000000000E+00    0.0000000000000000E+00    0.0000000000000000E+00    0.0000000000000000E+00
 -0.6782  -0.1974    0.2304127126885498E-01    0.0000000000000000E+00    0.0000000000000000E+00    0.4988903671300450E+00   -0.4187973808398348E-04    0.0000000000000000E+00    0.0000000000000000E+00    0.0000000000000000E+00    0.0000000000000000E+00    0.0000000000000000E+00
 -0.6787  -0.1983    0.2257599235947510E-01    0.0000000000000000E+00    0.0000000000000000E+00    0.5000000000000000E+00    0.0000000000000000E+00    0.0000000000000000E+00    0.0000000000000000E+00    0.0000000000000000E+00    0.0000000000000000E+00    0.0000000000000000E+00
 -0.1974   0.6782    0.2456297402347527E-01    0.0000000000000000E+00    0.0000000000000000E+00   -0.5000000000000000E+00    0.5018879542511208E-03    0.0000000000000000E+00    0.0000000000000000E+00    0.0000000000000000E+00    0.0000000000000000E+00    0.0000000000000000E+00
 -0.1979   0.6773    0.2502877475255322E-01   -0.2731137363547553E-07    0.2762606150785402E-07   -0.4949314251779032E+00   -0.7051308848136371E-03    0.3581727638978772E-10   -0.1727901142534270E-08   -0.6289782063240157E-13   -0.5878067130260511E-13    0.4762608927025291E-11
 -0.1994   0.6745    0.2637424077091887E-01    0.7136503803102993E-05   -0.2431372898593125E-05   -0.4797505714292765E+00   -0.9089987530057591E-02   -0.3442507423749658E-08   -0.1728513999467440E-08   -0.1676983205078919E-12   -0.9057164740422508E-13    0.2045347051449209E-10
 -0.2020   0.6698    0.2851677412384063E-01    0.4998361706326385E-04   -0.6063940723905044E-05   -0.4545516381202042E+00   -0.4746866023063960E-01   -0.2672330579964172E-07   -0.1729974425865310E-08   -0.1042397505118808E-12   -0.1118029280267052E-12    0.4571700309985438E-10
 -0.2056   0.6633    0.3141562416600022E-01    0.1525893913614273E-03   -0.8531692770555442E-05   -0.4195622083487826E+00   -0.1390164922747425E+00   -0.8237110063835460E-07   -0.1732372148510741E-08    0.4514062734717328E-12   -0.1184746745153120E-12    0.8014282987245380E-10
 -0.2101   0.6549    0.3501366726690087E-01    0.3122868100433205E-03   -0.9321375883472791E-05   -0.3752646315827811E+00   -0.2830065841817287E+00   -0.1688428951918528E-06   -0.1734879094550390E-08    0.1784211667299473E-11   -0.1491792800401015E-12    0.1206342178927677E-09
 -0.2157   0.6448    0.3916440611922618E-01    0.5033402667112420E-03   -0.8359206023371271E-05   -0.3225735961132852E+00   -0.4569796835017376E+00   -0.2719332711698862E-06   -0.1736022254769654E-08    0.3922154268032330E-11   -0.1936367732824351E-12    0.1613980685211125E-09
 -0.2222   0.6330    0.4360467078035845E-01    0.6879990825980819E-03   -0.6261197757792913E-05   -0.2630245835811932E+00   -0.6267099872639617E+00   -0.3713092980611792E-06   -0.1734370067701940E-08    0.6627337567621794E-11   -0.1941884153477957E-12    0.1908356736524119E-09
 -0.2296   0.6195    0.4795924236401407E-01    0.8297888879904126E-03   -0.3624116949787351E-05   -0.1988790880747978E+00   -0.7587389025591037E+00   -0.4472769307351228E-06   -0.1728671439500673E-08    0.9525255584286185E-11   -0.1829925100338414E-12    0.1915258368567763E-09
 -0.2379   0.6043    0.5178228945304723E-01    0.9069416406204077E-03   -0.1255343103490555E-05   -0.1330441906221193E+00   -0.8327878285438042E+00   -0.4882069316891118E-06   -0.1717858293115437E-08    0.1218498912880506E-10   -0.1183020695294523E-12    0.1409658778595002E-09
 -0.2470   0.5876    0.5462795151461605E-01    0.9227955688894638E-03    0.2239367524127853E-06   -0.6876784786431005E-01   -0.8515060209205779E+00   -0.4959499390015617E-06   -0.1700801360209406E-08    0.1422736234379940E-10   -0.1231143008720292E-12    0.1586060449643156E-10
 -0.2570   0.5694    0.5614004796693800E-01    0.9080627913462385E-03    0.3995970158221500E-06   -0.9181439256729514E-02   -0.8426365929497996E+00   -0.4871379845068749E-06   -0.1676188078852774E-08    0.1538359717390136E-10   -0.5617576716299144E-13   -0.2034027390962478E-09
 -0.2677   0.5498    0.5612819097264370E-01    0.9114649227307226E-03   -0.6489148678687601E-06    0.4316356270715950E-01   -0.8506165063378445E+00   -0.4880448970382300E-06   -0.1642322990059661E-08    0.1556897839816163E-10   -0.2281985364560590E-13   -0.5271943298579274E-09
 -0.2792   0.5288    0.5459622091896212E-01    0.9822606556014358E-03   -0.2536807038152168E-05    0.8663492100559564E-01   -0.9206331178543080E+00   -0.5251980547783377E-06   -0.1596947521269321E-08    0.1487082679219043E-10    0.7173775462554488E-13   -0.9540701700894161E-09
 -0.2914   0.5066    0.5170800120805826E-01    0.1155057773298409E-02   -0.4734502956024173E-05    0.1206794796957471E+00   -0.1084684905359338E+01   -0.6171858921508433E-06   -0.1537245282456912E-08    0.1348095246545000E-10    0.9905271047827569E-13   -0.1468029010853744E-08
 -0.3041   0.4833    0.4771818912616385E-01    0.1445820712110258E-02   -0.6909651444724752E-05    0.1458005598760569E+00   -0.1357729240662589E+01   -0.7725434658230788E-06   -0.1460232738545453E-08    0.1152479500721171E-10    0.1440028651877867E-12   -0.2037717800051908E-08
 -0.3175   0.4589    0.4291099766502886E-01    0.1857875979854948E-02   -0.8919436117122742E-05    0.1633599105543357E+00   -0.1743011839750884E+01   -0.9930315498292985E-06   -0.1363727863273878E-08    0.8962185160665825E-11    0.2192968029390840E-12   -0.2618499507500704E-08
 -0.3314   0.4336    0.3757170080404416E-01    0.2389419143299549E-02   -0.1077183009600435E-04    0.1752287181497407E+00   -0.2238863617808571E+01   -0.1277673656375131E-05   -0.1247392557301996E-08    0.5650091505771115E-11    0.2786174069235869E-12   -0.3158659955121434E-08
 -0.3457   0.4075    0.3198394253464482E-01    0.3036273344161722E-02   -0.1244763584542039E-04    0.1833684975429798E+00   -0.2841253443881230E+01   -0.1624268007102026E-05   -0.1113148101472561E-08    0.1362767537704812E-11    0.3608294218970798E-12   -0.3612006482106578E-08
 -0.3604   0.3806    0.2643693502445951E-01    0.3790314024552921E-02   -0.1390288552329676E-04    0.1894727124402418E+00   -0.3542390684405874E+01   -0.2028492917349561E-05   -0.9652371436852381E-09   -0.4094585781544424E-11    0.4490713356730680E-12   -0.3948312278252014E-08
 -0.3754   0.3532    0.2123071577540508E-01    0.4636916073131858E-02   -0.1503739075865625E-04    0.1947778082787273E+00   -0.4328422467573910E+01   -0.2482568957184964E-05   -0.8097914214189039E-09   -0.1087118069176274E-10    0.5275779813018744E-12   -0.4158311954049598E-08
 -0.3907   0.3252    0.1667465613471453E-01    0.5553762943890167E-02   -0.1576560303626065E-04    0.2000607646452524E+00   -0.5178387772046209E+01   -0.2974558820335362E-05   -0.6542847236223892E-09   -0.1903800034286363E-10    0.6027400800689975E-12   -0.4251674374546044E-08
 -0.4062   0.2969    0.1307645786296851E-01    0.6511446527915207E-02   -0.1600311010626196E-04    0.2057527148621220E+00   -0.6064809057135987E+01   -0.3488737930175522E-05   -0.5068402017527340E-09   -0.2850378266749942E-10    0.6167288901792745E-12   -0.4248889943440221E-08
 -0.4219   0.2684    0.1072314199506833E-01    0.7475280966440558E-02   -0.1570683358381089E-04    0.2120759799768886E+00   -0.6955410231829440E+01   -0.4006499759897211E-05   -0.3757452092523206E-09   -0.3900121892108643E-10    0.6817602038466930E-12   -0.4173018211366120E-08
 -0.4376   0.2397    0.9857463091296996E-02    0.8407322000146954E-02   -0.1483684775236766E-04    0.2191474441640560E+00   -0.7814988610058835E+01   -0.4507505810178207E-05   -0.2688113100168810E-09   -0.5002828706857088E-10    0.7020217740461021E-12   -0.4045076972165884E-08
 -0.4533   0.2110    0.1065404019473388E-01    0.9267776744759105E-02   -0.1336743255924880E-04    0.2270367639840625E+00   -0.8606738109790793E+01   -0.4970367017743061E-05   -0.1925142371905775E-09   -0.6083281101076921E-10    0.6973518984487725E-12   -0.3881801384671146E-08
 -0.4689   0.1824    0.1319656958786456E-01    0.1001549775520323E-01   -0.1124706851031945E-04    0.2357919030449200E+00   -0.9292698499967045E+01   -0.5372988408385091E-05   -0.1513677273801139E-09   -0.7057232576102024E-10    0.6255551632250445E-12   -0.3695717889704020E-08
 -0.4844   0.1541    0.1745609119600303E-01    0.1060802436153572E-01   -0.8419265214159840E-05    0.2454472558038209E+00   -0.9833831145470086E+01   -0.5692500090503748E-05   -0.1468877866561691E-09   -0.7820860625784576E-10    0.5592679097610187E-12   -0.3495348563538336E-08
 -0.4998   0.1262    0.2326990558314697E-01    0.1100216368624509E-01   -0.4818007040476092E-05    0.2560241156992387E+00   -0.1019056432279613E+02   -0.5905658765074364E-05   -0.1768932569867765E-09   -0.8275669038937394E-10    0.4591119151520218E-12   -0.3287201384358229E-08
 -0.5148   0.0987    0.3032447692553918E-01    0.1115634342002247E-01   -0.4254650188990687E-06    0.2675281309052233E+00   -0.1032501443998707E+02   -0.5990004238900275E-05   -0.2351945588155782E-09   -0.8338346679792608E-10    0.3014320563987649E-12   -0.3075999004120700E-08
 -0.5295   0.0719    0.3815003783680986E-01    0.1103558396806579E-01    0.4693133971046192E-05    0.2799457605468192E+00   -0.1020554408511908E+02   -0.5926644312612595E-05   -0.3117035275723712E-09   -0.7955380798563283E-10    0.1377162273108468E-12   -0.2864374173613959E-08
 -0.5438   0.0457    0.4613896995600547E-01    0.1061903312203773E-01    0.1032084120423918E-04    0.2932408202354961E+00   -0.9813682638023501E+01   -0.5704193899233405E-05   -0.3936044615238110E-09   -0.7129863366373002E-10   -0.5945244296867713E-13   -0.2653724075554753E-08
 -0.5577   0.0204    0.5359843796753095E-01    0.9908511413395099E-02    0.1607870199886330E-04    0.3073519437684202E+00   -0.9151844194884347E+01   -0.5323526776210119E-05   -0.4674728867892775E-09   -0.5929445823227297E-10   -0.2330219350810125E-12   -0.2445294943961840E-08
 -0.5710  -0.0040    0.5983907480233361E-01    0.8935120939982220E-02    0.2143934021118416E-04    0.3221915477800659E+00   -0.8249286215301531E+01   -0.4801213995581807E-05   -0.5219188900507099E-09   -0.4483591276027710E-10   -0.3812505866562788E-12   -0.2238618084307586E-08
 -0.5838  -0.0273    0.6428496441482241E-01    0.7760401422588969E-02    0.2583066806628004E-04    0.3376463649647210E+00   -0.7162976104561340E+01   -0.4170337724004568E-05   -0.5501777991523404E-09   -0.2970218515585543E-10   -0.4588551760775772E-12   -0.2033455671207607E-08
 -0.5960  -0.0495    0.6657499857942181E-01    0.6469832834005892E-02    0.2875962036365088E-04    0.3535787997198827E+00   -0.5971592704717851E+01   -0.3476827859430228E-05   -0.5514943293705166E-09   -0.1572886265677198E-10   -0.5322964291565313E-12   -0.1829393209834551E-08
 -0.6074  -0.0704    0.6662121890773601E-01    0.5159386097916806E-02    0.2994937308850288E-04    0.3698275677956942E+00   -0.4763147528544075E+01   -0.2772420279157212E-05   -0.5306407119265444E-09   -0.4394984376432376E-11   -0.5564715355177441E-12   -0.1626188378400784E-08
 -0.6182  -0.0900    0.6460388674088820E-01    0.3919116499361177E-02    0.2939531697155217E-04    0.3862059297522384E+00   -0.3620109770144481E+01   -0.2105571869965501E-05   -0.4958683880174064E-09    0.3479327936872778E-11   -0.5546951786783438E-12   -0.1423698662433859E-08
 -0.6281  -0.1082    0.6090815092155919E-01    0.2819185541011501E-02    0.2734355331073020E-04    0.4024969703881792E+00   -0.2606638699270755E+01   -0.1514170976780697E-05   -0.4560435432066079E-09    0.7839701110512465E-11   -0.5049849427507525E-12   -0.1223330119495825E-08
 -0.6373  -0.1249    0.5602992112683456E-01    0.1902511585465620E-02    0.2418320125154337E-04    0.4184479259423362E+00   -0.1762023879380290E+01   -0.1021260790791390E-05   -0.4184707511067920E-09    0.9241898912826230E-11   -0.4722749968877338E-12   -0.1026835633882728E-08
 -0.6456  -0.1401    0.5048466762572704E-01    0.1184957311146694E-02    0.2032023665308760E-04    0.4337684486931035E+00   -0.1100752521809369E+01   -0.6354920027051974E-06   -0.3876572882144380E-09    0.8585125665927507E-11   -0.4521938379298263E-12   -0.8369640067812378E-09
 -0.6530  -0.1536    0.4474342019937759E-01    0.6609771056877887E-03    0.1607899506642003E-04    0.4481387180045658E+00   -0.6177608586836382E+00   -0.3537589692784539E-06   -0.3653039190587570E-09    0.6812928476582214E-11   -0.4378997164877774E-12   -0.6579866686229341E-09
 -0.6595  -0.1655    0.3920231378738200E-01    0.3108559954314326E-03    0.1167381590250676E-04    0.4612304547625777E+00   -0.2947939925218961E+00   -0.1656195849756641E-06   -0.3509943932722415E-09    0.4719030721744844E-11   -0.4290526267602957E-12   -0.4933940825346816E-09
 -0.6650  -0.1756    0.3417741972228901E-01    0.1062827852456264E-03    0.7284814679947444E-05    0.4727374902951603E+00   -0.1056354445667655E+00   -0.5570129459518491E-07   -0.3431298092881896E-09    0.2873500049016542E-11   -0.4472464065763404E-12   -0.3480382084961042E-09
 -0.6696  -0.1839    0.2990832091043760E-01    0.1254161859731789E-04    0.3223283736768238E-05    0.4824060722549673E+00   -0.1781730024112220E-01   -0.5647835227194592E-08   -0.3394499568584730E-09    0.1587386472268193E-11   -0.4683701343433100E-12   -0.2247124396281830E-09
 -0.6732  -0.1904    0.2655554246684781E-01   -0.1064043059579299E-04    0.9717210065937389E-07    0.4900532830310689E+00    0.5943069929107285E-02    0.6471781404844064E-08   -0.3377587922889780E-09    0.9234765729893013E-12   -0.4823394288144822E-12   -0.1274580046541074E-09
 -0.6757  -0.1951    0.2418842289879552E-01   -0.5159778654742712E-05   -0.1213143987109148E-05    0.4955670233357206E+00    0.4016484586850303E-02    0.2841020645831066E-08   -0.3359080839003548E-09    0.6858038442691949E-12   -0.5407770585497129E-12   -0.5667789198041118E-10
 -0.6773  -0.1979    0.2278807838277634E-01   -0.2232822050510398E-06   -0.2232072561655140E-06    0.4988903166946686E+00    0.7423740783917251E-03    0.1900911300205299E-09   -0.3335413111069802E-09    0.3624324690192082E-12   -0.3725466116155651E-12   -0.1410702663625502E-10
 -0.6778  -0.1988    0.2232251428345979E-01    0.0000000000000000E+00    0.0000000000000000E+00    0.5000000000000000E+00   -0.4166653968417120E-04    0.0000000000000000E+00    0.0000000000000000E+00    0.0000000000000000E+00    0.0000000000000000E+00    0.0000000000000000E+00
 -0.1946   0.6767    0.2536108204994903E-01    0.0000000000000000E+00    0.0000000000000000E+00   -0.5000000000000000E+00   -0.4777705503334410E-02    0.0000000000000000E+00    0.0000000000000000E+00    0.0000000000000000E+00    0.0000000000000000E+00    0.0000000000000000E+00
 -0.1951   0.6757    0.2581658750191196E-01    0.2429702078433475E-05   -0.7133322766095676E-05   -0.4949290820784949E+00   -0.9088899302703811E-02   -0.3440361545749244E-08   -0.1728194216205070E-08   -0.9988571655992345E-13   -0.6233815547096455E-13    0.5248216466448297E-11
 -0.1966   0.6729    0.2715032262444862E-01    0.3952728687864312E-04   -0.3953071794246878E-04   -0.4797410851343890E+00   -0.2136271500026251E-01   -0.7627091747234308E-07   -0.1728524427757616E-08   -0.2677329928937877E-12   -0.2615390543025953E-12    0.2071661158592475E-10
 -0.1992   0.6682    0.2928971466592392E-01    0.1976747665798193E-03   -0.8884642335440848E-04   -0.4545295194807225E+00   -0.5156041436631977E-01   -0.4264169029412975E-06   -0.1729686699425415E-08    0.1335407479041706E-12   -0.6633617266604830E-12    0.4573185406753222E-10
 -0.2028   0.6617    0.3216891099459174E-01    0.5630625292959598E-03   -0.1270616354169093E-03   -0.4195206793857015E+00   -0.1205839714273037E+00   -0.1248254297715551E-05   -0.1731709102503753E-08    0.2322558811940212E-11   -0.1208158573184903E-11    0.8002444193411229E-10
 -0.2073   0.6534    0.3571311358905186E-01    0.1142528301391169E-02   -0.1403766273945289E-03   -0.3751960834306184E+00   -0.2360305842230293E+00   -0.2541906268383892E-05   -0.1733857918351234E-08    0.7305697713455572E-11   -0.1671544846981732E-11    0.1204588095937709E-09
 -0.2129   0.6433    0.3977505218934703E-01    0.1852458192151362E-02   -0.1283443782241982E-03   -0.3224714347555331E+00   -0.3843652907460833E+00   -0.4110258136237058E-05   -0.1734824200960716E-08    0.1528006887685507E-10   -0.1912706104612028E-11    0.1610240205063285E-09
 -0.2194   0.6314    0.4409865627542436E-01    0.2556414733794833E-02   -0.9779436877683221E-04   -0.2628858444809758E+00   -0.5379278327741099E+00   -0.5647819574257379E-05   -0.1733194525399551E-08    0.2543762422924090E-10   -0.1923069342657513E-11    0.1905090599163550E-09
 -0.2268   0.6179    0.4832126977598464E-01    0.3116816076403019E-02   -0.5875952572397449E-04   -0.1987065993232089E+00   -0.6669903940972339E+00   -0.6852415122341534E-05   -0.1727679783958269E-08    0.3638093992730518E-10   -0.1727257226136203E-11    0.1910612640321219E-09