 title="result"
 variables="x","y","P","u","v","t","omega","psi","RES1","RES2","RES3","RES4"
zone,j= 49,i= 49,f=point
 -0.3851   0.5930    0.2498958964121590E-01    0.0000000000000000E+00    0.0000000000000000E+00   -0.5000000000000000E+00    0.0000000000000000E+00    0.0000000000000000E+00    0.0000000000000000E+00    0.0000000000000000E+00    0.0000000000000000E+00    0.0000000000000000E+00
 -0.3853   0.5920    0.2550940869335624E-01    0.0000000000000000E+00    0.0000000000000000E+00   -0.4957101839465529E+00   -0.6197438888293410E-04    0.0000000000000000E+00    0.0000000000000000E+00    0.0000000000000000E+00    0.0000000000000000E+00    0.0000000000000000E+00
 -0.3860   0.5888    0.2704268648751444E-01    0.0000000000000000E+00    0.0000000000000000E+00   -0.4828611354145382E+00   -0.4188612393621081E-02    0.0000000000000000E+00    0.0000000000000000E+00    0.0000000000000000E+00    0.0000000000000000E+00    0.0000000000000000E+00
 -0.3871   0.5836    0.2952955450257505E-01    0.0000000000000000E+00    0.0000000000000000E+00   -0.4615261559028541E+00   -0.1593632344527997E-01    0.0000000000000000E+00    0.0000000000000000E+00    0.0000000000000000E+00    0.0000000000000000E+00    0.0000000000000000E+00
 -0.3887   0.5764    0.3285957412725023E-01    0.0000000000000000E+00    0.0000000000000000E+00   -0.4318674855269099E+00   -0.2979734760557017E-01    0.0000000000000000E+00    0.0000000000000000E+00    0.0000000000000000E+00    0.0000000000000000E+00    0.0000000000000000E+00
 -0.3906   0.5671    0.3683676281110906E-01    0.0000000000000000E+00    0.0000000000000000E+00   -0.3941942010387187E+00   -0.3717445600170879E-01    0.0000000000000000E+00    0.0000000000000000E+00    0.0000000000000000E+00    0.0000000000000000E+00    0.0000000000000000E+00
 -0.3930   0.5558    0.4118783216169870E-01    0.0000000000000000E+00    0.0000000000000000E+00   -0.3490369933383439E+00   -0.3281098601702082E-01    0.0000000000000000E+00    0.0000000000000000E+00    0.0000000000000000E+00    0.0000000000000000E+00    0.0000000000000000E+00
 -0.3958   0.5426    0.4558126186505643E-01    0.0000000000000000E+00    0.0000000000000000E+00   -0.2972336396471010E+00   -0.1700356047972924E-01    0.0000000000000000E+00    0.0000000000000000E+00    0.0000000000000000E+00    0.0000000000000000E+00    0.0000000000000000E+00
 -0.3990   0.5275    0.4965200551964415E-01    0.0000000000000000E+00    0.0000000000000000E+00   -0.2400174427396778E+00    0.3717122033827242E-02    0.0000000000000000E+00    0.0000000000000000E+00    0.0000000000000000E+00    0.0000000000000000E+00    0.0000000000000000E+00
 -0.4026   0.5106    0.5303191973854685E-01    0.0000000000000000E+00    0.0000000000000000E+00   -0.1790931858664431E+00    0.1669815431600102E-01    0.0000000000000000E+00    0.0000000000000000E+00    0.0000000000000000E+00    0.0000000000000000E+00    0.0000000000000000E+00
 -0.4066   0.4920    0.5538712253511168E-01    0.0000000000000000E+00    0.0000000000000000E+00   -0.1166695563895897E+00    0.3839647379090563E-02    0.0000000000000000E+00    0.0000000000000000E+00    0.0000000000000000E+00    0.0000000000000000E+00    0.0000000000000000E+00
 -0.4109   0.4717    0.5645903164914289E-01    0.0000000000000000E+00    0.0000000000000000E+00   -0.5539933740213356E-01   -0.5615015236860925E-01    0.0000000000000000E+00    0.0000000000000000E+00    0.0000000000000000E+00    0.0000000000000000E+00    0.0000000000000000E+00
 -0.4156   0.4498    0.5609915728034443E-01    0.0000000000000000E+00    0.0000000000000000E+00    0.1828537890780437E-02   -0.1837535404165549E+00    0.0000000000000000E+00    0.0000000000000000E+00    0.0000000000000000E+00    0.0000000000000000E+00    0.0000000000000000E+00
 -0.4205   0.4264    0.5428581689453597E-01    0.0000000000000000E+00    0.0000000000000000E+00    0.5227764229270760E-01   -0.3945115618487223E+00    0.0000000000000000E+00    0.0000000000000000E+00    0.0000000000000000E+00    0.0000000000000000E+00    0.0000000000000000E+00
 -0.4258   0.4017    0.5111803395302138E-01    0.0000000000000000E+00    0.0000000000000000E+00    0.9388983922077446E-01   -0.6974962793865548E+00    0.0000000000000000E+00    0.0000000000000000E+00    0.0000000000000000E+00    0.0000000000000000E+00    0.0000000000000000E+00
 -0.4313   0.3757    0.4679250387409993E-01    0.0000000000000000E+00    0.0000000000000000E+00    0.1257841572824171E+00   -0.1097284157721634E+01    0.0000000000000000E+00    0.0000000000000000E+00    0.0000000000000000E+00    0.0000000000000000E+00    0.0000000000000000E+00
 -0.4371   0.3485    0.4157468136628512E-01    0.0000000000000000E+00    0.0000000000000000E+00    0.1484823226455309E+00   -0.1597151965709428E+01    0.0000000000000000E+00    0.0000000000000000E+00    0.0000000000000000E+00    0.0000000000000000E+00    0.0000000000000000E+00
 -0.4431   0.3203    0.3577287758127701E-01    0.0000000000000000E+00    0.0000000000000000E+00    0.1636895605383788E+00   -0.2200124943005634E+01    0.0000000000000000E+00    0.0000000000000000E+00    0.0000000000000000E+00    0.0000000000000000E+00    0.0000000000000000E+00
 -0.4493   0.2911    0.2972031754756262E-01    0.0000000000000000E+00    0.0000000000000000E+00    0.1737007602820741E+00   -0.2906705730391714E+01    0.0000000000000000E+00    0.0000000000000000E+00    0.0000000000000000E+00    0.0000000000000000E+00    0.0000000000000000E+00
 -0.4557   0.2612    0.2376601429259769E-01    0.0000000000000000E+00    0.0000000000000000E+00    0.1807298613246340E+00   -0.3710842493074235E+01    0.0000000000000000E+00    0.0000000000000000E+00    0.0000000000000000E+00    0.0000000000000000E+00    0.0000000000000000E+00
 -0.4622   0.2305    0.1826988005089841E-01    0.0000000000000000E+00    0.0000000000000000E+00    0.1864703392295664E+00   -0.4596602670681539E+01    0.0000000000000000E+00    0.0000000000000000E+00    0.0000000000000000E+00    0.0000000000000000E+00    0.0000000000000000E+00
 -0.4688   0.1994    0.1359359747415008E-01    0.0000000000000000E+00    0.0000000000000000E+00    0.1919936646702088E+00   -0.5537149145943741E+01    0.0000000000000000E+00    0.0000000000000000E+00    0.0000000000000000E+00    0.0000000000000000E+00    0.0000000000000000E+00
 -0.4755   0.1678    0.1008114009021290E-01    0.0000000000000000E+00    0.0000000000000000E+00    0.1978808164271392E+00   -0.6496220995932243E+01    0.0000000000000000E+00    0.0000000000000000E+00    0.0000000000000000E+00    0.0000000000000000E+00    0.0000000000000000E+00
 -0.4823   0.1359    0.8029526301303097E-02    0.0000000000000000E+00    0.0000000000000000E+00    0.2044168254016898E+00   -0.7431200997782620E+01    0.0000000000000000E+00    0.0000000000000000E+00    0.0000000000000000E+00    0.0000000000000000E+00    0.0000000000000000E+00
 -0.4891   0.1040    0.7655601294678955E-02    0.0000000000000000E+00    0.0000000000000000E+00    0.2117410833194667E+00   -0.8296473393405810E+01    0.0000000000000000E+00    0.0000000000000000E+00    0.0000000000000000E+00    0.0000000000000000E+00    0.0000000000000000E+00
 -0.4959   0.0720    0.9065066936419395E-02    0.0000000000000000E+00    0.0000000000000000E+00    0.2199303705899787E+00   -0.9046128209416166E+01    0.0000000000000000E+00    0.0000000000000000E+00    0.0000000000000000E+00    0.0000000000000000E+00    0.0000000000000000E+00
 -0.5026   0.0401    0.1222753051179592E-01    0.0000000000000000E+00    0.0000000000000000E+00    0.2290339974293796E+00   -0.9635863984750703E+01    0.0000000000000000E+00    0.0000000000000000E+00    0.0000000000000000E+00    0.0000000000000000E+00    0.0000000000000000E+00
 -0.5094   0.0085    0.1695936011701676E-01    0.0000000000000000E+00    0.0000000000000000E+00    0.2390846361836334E+00   -0.1002468132758126E+02    0.0000000000000000E+00    0.0000000000000000E+00    0.0000000000000000E+00    0.0000000000000000E+00    0.0000000000000000E+00
 -0.5160  -0.0226    0.2291682303289092E-01    0.0000000000000000E+00    0.0000000000000000E+00    0.2500992577588396E+00   -0.1017730964109742E+02    0.0000000000000000E+00    0.0000000000000000E+00    0.0000000000000000E+00    0.0000000000000000E+00    0.0000000000000000E+00
 -0.5225  -0.0533    0.2960457536655590E-01    0.0000000000000000E+00    0.0000000000000000E+00    0.2620767008789822E+00   -0.1006807568003123E+02    0.0000000000000000E+00    0.0000000000000000E+00    0.0000000000000000E+00    0.0000000000000000E+00    0.0000000000000000E+00
 -0.5289  -0.0832    0.3640667236321253E-01    0.0000000000000000E+00    0.0000000000000000E+00    0.2749945381442495E+00   -0.9686161676549307E+01    0.0000000000000000E+00    0.0000000000000000E+00    0.0000000000000000E+00    0.0000000000000000E+00    0.0000000000000000E+00
 -0.5351  -0.1124    0.4264545680766050E-01    0.0000000000000000E+00    0.0000000000000000E+00    0.2888064919928428E+00   -0.9041112786591070E+01    0.0000000000000000E+00    0.0000000000000000E+00    0.0000000000000000E+00    0.0000000000000000E+00    0.0000000000000000E+00
 -0.5411  -0.1406    0.4766623578623588E-01    0.0000000000000000E+00    0.0000000000000000E+00    0.3034411014235142E+00   -0.8166497758731580E+01    0.0000000000000000E+00    0.0000000000000000E+00    0.0000000000000000E+00    0.0000000000000000E+00    0.0000000000000000E+00
 -0.5468  -0.1678    0.5093379365539898E-01    0.0000000000000000E+00    0.0000000000000000E+00    0.3188018380270188E+00   -0.7119400661085777E+01    0.0000000000000000E+00    0.0000000000000000E+00    0.0000000000000000E+00    0.0000000000000000E+00    0.0000000000000000E+00
 -0.5524  -0.1938    0.5211647296975033E-01    0.0000000000000000E+00    0.0000000000000000E+00    0.3347681811328417E+00   -0.5974408988921305E+01    0.0000000000000000E+00    0.0000000000000000E+00    0.0000000000000000E+00    0.0000000000000000E+00    0.0000000000000000E+00
 -0.5576  -0.2185    0.5113206005598778E-01    0.0000000000000000E+00    0.0000000000000000E+00    0.3511964338998154E+00   -0.4812828850616444E+01    0.0000000000000000E+00    0.0000000000000000E+00    0.0000000000000000E+00    0.0000000000000000E+00    0.0000000000000000E+00
 -0.5626  -0.2419    0.4814101364267995E-01    0.0000000000000000E+00    0.0000000000000000E+00    0.3679187321155247E+00   -0.3710019347179950E+01    0.0000000000000000E+00    0.0000000000000000E+00    0.0000000000000000E+00    0.0000000000000000E+00    0.0000000000000000E+00
 -0.5672  -0.2637    0.4349187042881419E-01    0.0000000000000000E+00    0.0000000000000000E+00    0.3847393055162557E+00   -0.2724719747878197E+01    0.0000000000000000E+00    0.0000000000000000E+00    0.0000000000000000E+00    0.0000000000000000E+00    0.0000000000000000E+00
 -0.5715  -0.2841    0.3764053937662369E-01    0.0000000000000000E+00    0.0000000000000000E+00    0.4014288544036776E+00   -0.1893339603119313E+01    0.0000000000000000E+00    0.0000000000000000E+00    0.0000000000000000E+00    0.0000000000000000E+00    0.0000000000000000E+00
 -0.5755  -0.3027    0.3107044794725470E-01    0.0000000000000000E+00    0.0000000000000000E+00    0.4177203867774264E+00   -0.1230019968292281E+01    0.0000000000000000E+00    0.0000000000000000E+00    0.0000000000000000E+00    0.0000000000000000E+00    0.0000000000000000E+00
 -0.5791  -0.3196    0.2423354291700991E-01    0.0000000000000000E+00    0.0000000000000000E+00    0.4333115659793596E+00   -0.7310235109949400E+00    0.0000000000000000E+00    0.0000000000000000E+00    0.0000000000000000E+00    0.0000000000000000E+00    0.0000000000000000E+00
 -0.5823  -0.3347    0.1751913195467211E-01    0.0000000000000000E+00    0.0000000000000000E+00    0.4478777862228918E+00   -0.3808958437731242E+00    0.0000000000000000E+00    0.0000000000000000E+00    0.0000000000000000E+00    0.0000000000000000E+00    0.0000000000000000E+00
 -0.5851  -0.3479    0.1124598881445022E-01    0.0000000000000000E+00    0.0000000000000000E+00    0.4610961647305497E+00   -0.1577958961998664E+00    0.0000000000000000E+00    0.0000000000000000E+00    0.0000000000000000E+00    0.0000000000000000E+00    0.0000000000000000E+00
 -0.5875  -0.3592    0.5666864421260164E-02    0.0000000000000000E+00    0.0000000000000000E+00    0.4726749669032594E+00   -0.3655717614755111E-01    0.0000000000000000E+00    0.0000000000000000E+00    0.0000000000000000E+00    0.0000000000000000E+00    0.0000000000000000E+00
 -0.5895  -0.3685    0.9733480850820782E-03    0.0000000000000000E+00    0.0000000000000000E+00    0.4823789737634597E+00    0.1073634668557588E-01    0.0000000000000000E+00    0.0000000000000000E+00    0.0000000000000000E+00    0.0000000000000000E+00    0.0000000000000000E+00
 -0.5910  -0.3757   -0.2706444146549824E-02    0.0000000000000000E+00    0.0000000000000000E+00    0.4900419155276982E+00    0.1439707737910634E-01    0.0000000000000000E+00    0.0000000000000000E+00    0.0000000000000000E+00    0.0000000000000000E+00    0.0000000000000000E+00
 -0.5921  -0.3809   -0.5316332239556460E-02    0.0000000000000000E+00    0.0000000000000000E+00    0.4955626512540792E+00    0.4392198667418775E-02    0.0000000000000000E+00    0.0000000000000000E+00    0.0000000000000000E+00    0.0000000000000000E+00    0.0000000000000000E+00
 -0.5928  -0.3841   -0.6872016218921774E-02    0.0000000000000000E+00    0.0000000000000000E+00    0.4988892632195163E+00   -0.1059514569626258E-03    0.0000000000000000E+00    0.0000000000000000E+00    0.0000000000000000E+00    0.0000000000000000E+00    0.0000000000000000E+00
 -0.5930  -0.3851   -0.7392438983373851E-02    0.0000000000000000E+00    0.0000000000000000E+00    0.5000000000000000E+00    0.0000000000000000E+00    0.0000000000000000E+00    0.0000000000000000E+00    0.0000000000000000E+00    0.0000000000000000E+00    0.0000000000000000E+00
 -0.3841   0.5928    0.2510238161451641E-01    0.0000000000000000E+00    0.0000000000000000E+00   -0.5000000000000000E+00   -0.6214155628448083E-04    0.0000000000000000E+00    0.0000000000000000E+00    0.0000000000000000E+00    0.0000000000000000E+00    0.0000000000000000E+00
 -0.3843   0.5918    0.2562172465087885E-01    0.2004700675500372E-06   -0.2005619654983368E-06   -0.4957100822577877E+00   -0.5434348039614606E-03   -0.1352470062766101E-09    0.1096404384382660E-08    0.2001942448620619E-12    0.2027633703299836E-12   -0.8816030479426307E-11
 -0.3850   0.5886    0.2715452950513365E-01    0.4197078983461007E-05   -0.1047213951711949E-05   -0.4828607274693001E+00   -0.3799900691215144E-02   -0.2262891364431103E-08    0.1097947031685961E-08    0.4286883348303405E-12    0.2920463350319924E-12   -0.3509603675386219E-10
 -0.3861   0.5834    0.2963804892339272E-01    0.1540983538898540E-04   -0.1205014952195173E-05   -0.4615252330240069E+00   -0.1287136379697384E-01   -0.8568692794994217E-08    0.1100092555678805E-08    0.4231406891541667E-12    0.2908845039839569E-12   -0.7886625467273811E-10
 -0.3876   0.5761    0.3295946556406188E-01    0.2908349076749876E-04   -0.7673615494529805E-06   -0.4318658399051017E+00   -0.2458291192489664E-01   -0.1604048294738431E-07    0.1102980504456494E-08    0.6585877676545948E-13    0.3029794297393362E-12   -0.1391167701869644E-09
 -0.3896   0.5669    0.3692506850565871E-01    0.3664888892145740E-04   -0.1119989084460409E-06   -0.3941916339640375E+00   -0.3132374364876859E-01   -0.2018269836498002E-07    0.1106480229949624E-08   -0.8729753031566645E-12    0.3366119232309228E-12   -0.2157752171383365E-09
 -0.3920   0.5556    0.4126330352875553E-01    0.3254002314934615E-04    0.4594313320242337E-06   -0.3490333171793998E+00   -0.2803062031850693E-01   -0.1786056694780163E-07    0.1109847509467993E-08   -0.2452609296210717E-11    0.3829605903227229E-12   -0.3063997042196398E-09
 -0.3948   0.5424    0.4564382362467705E-01    0.1698775548752635E-04    0.7439147918748556E-06   -0.2972286808288279E+00   -0.1478353663719883E-01   -0.9311800486141830E-08    0.1112342108613301E-08   -0.4571911425832464E-11    0.3946001511656583E-12   -0.4056412428177225E-09
 -0.3980   0.5273    0.4970239990807249E-01   -0.3196874932331769E-05    0.6325768179861297E-06   -0.2400110590640470E+00    0.2192486125361970E-02    0.1861345476015585E-08    0.1113384907706905E-08   -0.6991583527404810E-11    0.3996009252660304E-12   -0.5037634406845903E-09
 -0.4016   0.5104    0.5307160866383297E-01   -0.1469951817525433E-04    0.5953819810425619E-07   -0.1790853071509614E+00    0.1070025524415286E-01    0.8432373893105277E-08    0.1112724621292601E-08   -0.9439577591807691E-11    0.3257082646125620E-12   -0.5851110429500039E-09
 -0.4056   0.4917    0.5541811006996796E-01    0.1561368569181761E-05   -0.9867546600541662E-06   -0.1166602474142873E+00   -0.6825423031623156E-02    0.1812613788832682E-09    0.1110126954771695E-08   -0.1167555982450885E-10    0.3420918062713163E-12   -0.6266859739478825E-09
 -0.4099   0.4714    0.5648360820272423E-01    0.6806326710047696E-04   -0.2442779916395290E-05   -0.5538887053185163E-01   -0.7107153210252820E-01   -0.3501672355814633E-07    0.1105116383820492E-08   -0.1355159734428568E-10    0.2958015776766132E-12   -0.5993577578689013E-09
 -0.4145   0.4496    0.5611952711239052E-01    0.2064757453090522E-03   -0.4162373761680033E-05    0.1839629148868456E-02   -0.2020493508980651E+00   -0.1087767321338225E-06    0.1096369579324519E-08   -0.1501605090270530E-10    0.2665749565533559E-12   -0.4710325601786636E-09
 -0.4195   0.4262    0.5430394183934899E-01    0.4333128064606005E-03   -0.5971931685288494E-05    0.5228857737786985E-01   -0.4150626709259829E+00   -0.2299843796730807E-06    0.1081402327060554E-08   -0.1607064481490283E-10    0.1953194550541326E-12   -0.2144643490575859E-09
 -0.4247   0.4015    0.5113571255614670E-01    0.7582820381153407E-03   -0.7747486307679263E-05    0.9389972096730489E-01   -0.7191836307633487E+00   -0.4038173866659464E-06    0.1056551105285686E-08   -0.1671985466744630E-10    0.1384864445341805E-12    0.1816840566881694E-09
 -0.4303   0.3754    0.4681157914262535E-01    0.1186293561874799E-02   -0.9457910373027210E-05    0.1257922120982315E+00   -0.1119005812321755E+01   -0.6329178650105072E-06    0.1017681817289118E-08   -0.1691351225741045E-10    0.4875266856885219E-13    0.7023478604262223E-09
 -0.4360   0.3483    0.4159699046262003E-01    0.1720764868318551E-02   -0.1112742878206485E-04    0.1484881466519266E+00   -0.1617641547019282E+01   -0.9191187646062560E-06    0.9610820715655333E-09   -0.1654129611061705E-10   -0.1185163078787355E-13    0.1302803198655056E-08
 -0.4420   0.3200    0.3579991945822653E-01    0.2364699221910266E-02   -0.1276414679039559E-04    0.1636932226654683E+00   -0.2217673041306664E+01   -0.1264079191156952E-05    0.8848176878684111E-09   -0.1543302291517890E-10   -0.8237160953328271E-13    0.1917948282831317E-08
 -0.4482   0.2909    0.2975277146444471E-01    0.3118293417054438E-02   -0.1430730937457893E-04    0.1737026960188862E+00   -0.2918966391267372E+01   -0.1667957934804967E-05    0.7890307955615850E-09   -0.1338549410201395E-10   -0.2133432319695316E-12    0.2481475150362122E-08
 -0.4546   0.2609    0.2380343602636551E-01    0.3974708960215022E-02   -0.1562904967634401E-04    0.1807306391428372E+00   -0.3714795435320646E+01   -0.2127163845486592E-05    0.6763364659989612E-09   -0.1013942228789144E-10   -0.2968320034213434E-12    0.2944369898935650E-08
 -0.4611   0.2303    0.1831064200457921E-01    0.4916608190728621E-02   -0.1656756243517613E-04    0.1864704517396305E+00   -0.4588702545233251E+01   -0.2632463591517416E-05    0.5514832687736337E-09   -0.5413308690194185E-11   -0.3980149543281186E-12    0.3284973139724067E-08
 -0.4677   0.1991    0.1363509572745490E-01    0.5915139911666129E-02   -0.1697277375497657E-04    0.1919934368120262E+00   -0.5513624514866511E+01   -0.3168437119949378E-05    0.4207963144597926E-09    0.9939202239017675E-12   -0.4879985304739876E-12    0.3505522778741305E-08
 -0.4745   0.1676    0.1012009440713533E-01    0.6931572011261871E-02   -0.1673460748480725E-04    0.1978804187304748E+00   -0.6453462267342490E+01   -0.3714337240231109E-05    0.2918327628165240E-09    0.9130349254427017E-11   -0.5545841563758813E-12    0.3622381006262998E-08
 -0.4812   0.1357    0.8062303395270908E-02    0.7920583751036945E-02   -0.1579304768013588E-04    0.2044163296932835E+00   -0.7366165413479980E+01   -0.4245849328010762E-05    0.1726126012957518E-09    0.1877514810288972E-10   -0.6151745779447992E-12    0.3657053858525938E-08
 -0.4880   0.1037    0.7678423165764080E-02    0.8833839893144737E-02   -0.1412526069227406E-04    0.2117405126496494E+00   -0.8207047816253095E+01   -0.4737015673526485E-05    0.7104045823824734E-10    0.2944677834904041E-10   -0.5909994715835865E-12    0.3629767938474748E-08
 -0.4948   0.0717    0.9074141170834436E-02    0.9622855742198557E-02   -0.1173016522117886E-04    0.2199297286442727E+00   -0.8931441558644195E+01   -0.5161760368220166E-05   -0.6065346142003492E-11    0.4045119794682250E-10   -0.5525441215681326E-12    0.3555499467761125E-08
 -0.5016   0.0399    0.1221909106191788E-01    0.1024100832771804E-01   -0.8615424270964984E-05    0.2290332819786711E+00   -0.9496543759293722E+01   -0.5494990985907963E-05   -0.5384894266602380E-10    0.5090960986109394E-10   -0.4583902701860154E-12    0.3447097003672628E-08
 -0.5083   0.0083    0.1692976032743875E-01    0.1064532628290476E-01   -0.4804869914945612E-05    0.2390838443731410E+00   -0.9863077075397605E+01   -0.5713533654342848E-05   -0.7011565286707544E-10    0.5990868912064684E-10   -0.3325742459203695E-12    0.3313149261885417E-08
 -0.5149  -0.0228    0.2286271245868532E-01    0.1079904874797025E-01   -0.3591444190003726E-06    0.2500983881106127E+00   -0.9997631465720312E+01   -0.5797543827040111E-05   -0.5606673903358478E-10    0.6656702966623129E-10   -0.1510743570173889E-12    0.3160105382232770E-08
 -0.5214  -0.0535    0.2952327647156379E-01    0.1067568523869944E-01    0.4587708917798943E-05    0.2620757540084941E+00   -0.9876395074176504E+01   -0.5732652569346259E-05   -0.1628509306572656E-10    0.7013239988751252E-10    0.3295974604355933E-13    0.2992128126863558E-08
 -0.5278  -0.0834    0.3629667800497593E-01    0.1026450401012116E-01    0.9799814207398181E-05    0.2749935167227334E+00   -0.9490132268706342E+01   -0.5512978729649665E-05    0.4149350307791622E-10    0.7013811753608934E-10    0.2601252546696742E-12    0.2813381860811148E-08
 -0.5340  -0.1126    0.4250700513217506E-01    0.9576239420430510E-02    0.1492782858540238E-04    0.2888053999887167E+00   -0.8849358735775560E+01   -0.5144159478490642E-05    0.1073372848936494E-09    0.6643757766156000E-10    0.4755085214469545E-12    0.2625598242295135E-08
 -0.5400  -0.1408    0.4750170076044886E-01    0.8646827253194909E-02    0.1954172836177496E-04    0.3034399426805147E+00   -0.7987635503356871E+01   -0.4645450078374398E-05    0.1707097310732486E-09    0.5937317304471890E-10    0.6553785292240377E-12    0.2430549594922837E-08
 -0.5458  -0.1680    0.5074775647424926E-01    0.7536761530008722E-02    0.2319998841918750E-04    0.3188006145440525E+00   -0.6960902380943019E+01   -0.4049318521413279E-05    0.2223957545899324E-09    0.4971034694989385E-10    0.8213707491933064E-12    0.2229825742453007E-08
 -0.5513  -0.1940    0.5191526955797147E-01    0.6324716793969593E-02    0.2555083415827899E-04    0.3347668918528529E+00   -0.5841543229172196E+01   -0.3398112494896631E-05    0.2562526857374792E-09    0.3862615782779244E-10    0.9512529652866419E-12    0.2024326218805217E-08
 -0.5566  -0.2187    0.5092294405882140E-01    0.5096227392850550E-02    0.2641560037636896E-04    0.3511950751453075E+00   -0.4708057875691688E+01   -0.2737853845564888E-05    0.2702768564510905E-09    0.2740213611573949E-10    0.1055655562964830E-11    0.1815559400736300E-08
 -0.5615  -0.2421    0.4793107593339167E-01    0.3930453570095231E-02    0.2583276987733474E-04    0.3679173007255699E+00   -0.3632961512524279E+01   -0.2111220001034098E-05    0.2664017964559839E-09    0.1721620068728669E-10    0.1098302004898244E-11    0.1605580248614791E-08
 -0.5662  -0.2640    0.4328714218542767E-01    0.2889055946476673E-02    0.2402698364900947E-04    0.3847378049518079E+00   -0.2672723518025414E+01   -0.1551391799706688E-05    0.2494541170849907E-09    0.8916756222276945E-11    0.1105532332346115E-11    0.1395839862097792E-08
 -0.5705  -0.2843    0.3744542152961280E-01    0.2010259255471434E-02    0.2133689141111074E-04    0.4014273025881260E+00   -0.1862327798759244E+01   -0.1079013269362742E-05    0.2253160713561186E-09    0.2879155247548226E-11    0.1060207477365793E-11    0.1189593661424238E-08
 -0.5745  -0.3029    0.3088768633123100E-01    0.1308924065688620E-02    0.1811115983637399E-04    0.4177188227032931E+00   -0.1215417735193088E+01   -0.7020294997181171E-06    0.1994177045716583E-09   -0.9355016761247725E-12    0.1018449213852080E-11    0.9895298018480769E-09
 -0.5781  -0.3198    0.2406450903391005E-01    0.7811296122634092E-03    0.1463958830023550E-04    0.4333100511513380E+00   -0.7283799829411112E+00   -0.4183987385246301E-06    0.1757584286443681E-09   -0.2878017268947985E-11    0.9763162500675548E-12    0.7998803026182388E-09
 -0.5813  -0.3349    0.1736435634811931E-01    0.4105806893465807E-03    0.1110749140242061E-04    0.4478763978591887E+00   -0.3862614878342605E+00   -0.2192676596674890E-06    0.1566116611395607E-09   -0.3463469094855398E-11    0.9566236691682661E-12    0.6236642504514611E-09
 -0.5841  -0.3481    0.1110547346735376E-01    0.1741549896403512E-03    0.7633136095498265E-05    0.4610949805650791E+00   -0.1676622395863945E+00   -0.9232145760942406E-07    0.1426156172323889E-09   -0.3217901639596121E-11    0.9378331444764854E-12    0.4649623099733935E-09
 -0.5865  -0.3594    0.5540106953146056E-02    0.4506245255709503E-04    0.4325955730464452E-05    0.4726740454444634E+00   -0.4775872665805730E-01   -0.2305602966459082E-07    0.1333743740450366E-09   -0.2614658489719091E-11    0.9121939315015481E-12    0.3262828271455298E-09
 -0.5884  -0.3687    0.8586525691910382E-03   -0.6457860060311082E-05    0.1449936058732039E-05    0.4823783370917507E+00    0.1232716506217907E-02    0.4303592705564277E-08    0.1275668464091606E-09   -0.1994470560928718E-11    0.9253205840442646E-12    0.2101632427115030E-09
 -0.5900  -0.3759   -0.2813160747112158E-02   -0.1261442913372725E-04   -0.5573581476259711E-06    0.4900415421271778E+00    0.9027990059419094E-02    0.7298899199118965E-08    0.1237181692812991E-09   -0.1556312370643020E-11    0.9099535361323241E-12    0.1186873815374467E-09
 -0.5911  -0.3812   -0.5422606954665940E-02   -0.4310614532630626E-05   -0.1106967572684935E-05    0.4955624826721779E+00    0.3751833474500277E-02    0.2316331740658783E-08    0.1196652082979810E-09   -0.1287503090252606E-11    0.9776368083136422E-12    0.5273355992325979E-10
 -0.5918  -0.3843   -0.6980616751369832E-02   -0.1405402839412891E-06   -0.1407620260213645E-06    0.4988892209364176E+00    0.5880816572813711E-03    0.1206093393464016E-09    0.1152097259824250E-09   -0.6883832696577552E-12    0.6747272011942140E-12    0.1312327926449725E-10
 -0.5920  -0.3853   -0.7501163728283521E-02    0.0000000000000000E+00    0.0000000000000000E+00    0.5000000000000000E+00   -0.1054208476186666E-03    0.0000000000000000E+00    0.0000000000000000E+00    0.0000000000000000E+00    0.0000000000000000E+00    0.0000000000000000E+00
 -0.3809   0.5921    0.2543735365188506E-01    0.0000000000000000E+00    0.0000000000000000E+00   -0.5000000000000000E+00   -0.4188131657057788E-02    0.0000000000000000E+00    0.0000000000000000E+00    0.0000000000000000E+00    0.0000000000000000E+00    0.0000000000000000E+00
 -0.3812   0.5911    0.2595431103778228E-01    0.1046652784438031E-05   -0.4196413737843745E-05   -0.4957085685355782E+00   -0.3799065940610435E-02   -0.2262538396470060E-08    0.1097695669170090E-08    0.3125293806301860E-12    0.3553920395818477E-12   -0.8903152629198552E-11
 -0.3818   0.5880    0.2748282604987718E-01    0.1267968347418704E-04   -0.1268234738594752E-04   -0.4828546654132458E+00   -0.3399075430741760E-02   -0.3097079697006941E-07    0.1098361711478202E-08    0.9265864985008587E-12    0.9049594840854214E-12   -0.3505234817680059E-10
 -0.3829   0.5827    0.2995642129419306E-01    0.4508966991607132E-04   -0.1581872843765553E-04   -0.4615115523202791E+00   -0.5858802967372744E-02   -0.1114478345938905E-06    0.1099992962168284E-08    0.1018955753107065E-11    0.1314985446920769E-11   -0.7867999654576074E-10
 -0.3845   0.5755    0.3325578911664884E-01    0.8756375409929134E-04   -0.1078341007033342E-04   -0.4318414569432422E+00   -0.1168287853849477E-01   -0.2133759634418087E-06    0.1102554978739401E-08   -0.2995711317899108E-12    0.1742452102743153E-11   -0.1391616422791175E-09
 -0.3865   0.5662    0.3718989007814726E-01    0.1136086057542659E-03   -0.1910525778093581E-05   -0.3941535254496563E+00   -0.1651830735250564E-01   -0.2731228438194158E-06    0.1105755840081872E-08   -0.3763465233896923E-11    0.2122987549646460E-11   -0.2159849105121125E-09
 -0.3888   0.5549    0.4149182839181660E-01    0.1031028248000699E-03    0.6057148687294423E-05   -0.3489785732033055E+00   -0.1610873590050782E-01   -0.2451651585854756E-06    0.1108963057668000E-08   -0.9644259349461670E-11    0.2372951986816252E-11   -0.3064849068978859E-09
 -0.3917   0.5417    0.4583491410827400E-01    0.5634800246927077E-04    0.9924010322425838E-05   -0.2971546065645255E+00   -0.1017866553437712E-01   -0.1307948969612589E-06    0.1111432007191993E-08   -0.1758724632941466E-10    0.2452993537460646E-11   -0.4056659383411265E-09
 -0.3949   0.5266    0.4985763657623934E-01   -0.1407808826375499E-05    0.7822076122372563E-05   -0.2399154980074321E+00   -0.4006082826785441E-02    0.1429655937826551E-07    0.1112599410605514E-08   -0.2673913694628549E-10    0.2384777054650900E-11   -0.5039104203352629E-09