 title="result"
 variables="x","y","P","u","v","t","omega","psi","RES1","RES2","RES3","RES4"
zone,j= 49,i= 49,f=point
 -0.4119   0.5748    0.2471188412987909E-01    0.0000000000000000E+00    0.0000000000000000E+00   -0.5000000000000000E+00    0.0000000000000000E+00    0.0000000000000000E+00    0.0000000000000000E+00    0.0000000000000000E+00    0.0000000000000000E+00    0.0000000000000000E+00
 -0.4120   0.5737    0.2523602882692571E-01    0.0000000000000000E+00    0.0000000000000000E+00   -0.4958471610709899E+00   -0.1401848865007139E-03    0.0000000000000000E+00    0.0000000000000000E+00    0.0000000000000000E+00    0.0000000000000000E+00    0.0000000000000000E+00
 -0.4126   0.5705    0.2678734097887998E-01    0.0000000000000000E+00    0.0000000000000000E+00   -0.4834082945644935E+00   -0.4220599511303773E-02    0.0000000000000000E+00    0.0000000000000000E+00    0.0000000000000000E+00    0.0000000000000000E+00    0.0000000000000000E+00
 -0.4134   0.5653    0.2931127922303987E-01    0.0000000000000000E+00    0.0000000000000000E+00   -0.4627534041513187E+00   -0.1205480452355842E-01    0.0000000000000000E+00    0.0000000000000000E+00    0.0000000000000000E+00    0.0000000000000000E+00    0.0000000000000000E+00
 -0.4146   0.5580    0.3268916395264345E-01    0.0000000000000000E+00    0.0000000000000000E+00   -0.4340350566617289E+00   -0.1373457766076293E-01    0.0000000000000000E+00    0.0000000000000000E+00    0.0000000000000000E+00    0.0000000000000000E+00    0.0000000000000000E+00
 -0.4162   0.5486    0.3670728750648863E-01    0.0000000000000000E+00    0.0000000000000000E+00   -0.3975376670523028E+00    0.6374145377060356E-03    0.0000000000000000E+00    0.0000000000000000E+00    0.0000000000000000E+00    0.0000000000000000E+00    0.0000000000000000E+00
 -0.4181   0.5372    0.4107560085824633E-01    0.0000000000000000E+00    0.0000000000000000E+00   -0.3537376597424286E+00    0.3408257667934466E-01    0.0000000000000000E+00    0.0000000000000000E+00    0.0000000000000000E+00    0.0000000000000000E+00    0.0000000000000000E+00
 -0.4203   0.5239    0.4545308956438870E-01    0.0000000000000000E+00    0.0000000000000000E+00   -0.3033717753843321E+00    0.8128660262652079E-01    0.0000000000000000E+00    0.0000000000000000E+00    0.0000000000000000E+00    0.0000000000000000E+00    0.0000000000000000E+00
 -0.4228   0.5087    0.4947666822504702E-01    0.0000000000000000E+00    0.0000000000000000E+00   -0.2475155962697796E+00    0.1293509682326808E+00    0.0000000000000000E+00    0.0000000000000000E+00    0.0000000000000000E+00    0.0000000000000000E+00    0.0000000000000000E+00
 -0.4256   0.4916    0.5279138261791940E-01    0.0000000000000000E+00    0.0000000000000000E+00   -0.1876700682131079E+00    0.1598069594062093E+00    0.0000000000000000E+00    0.0000000000000000E+00    0.0000000000000000E+00    0.0000000000000000E+00    0.0000000000000000E+00
 -0.4287   0.4728    0.5508328086066625E-01    0.0000000000000000E+00    0.0000000000000000E+00   -0.1258341560234154E+00    0.1512395206434990E+00    0.0000000000000000E+00    0.0000000000000000E+00    0.0000000000000000E+00    0.0000000000000000E+00    0.0000000000000000E+00
 -0.4321   0.4523    0.5611184159707796E-01    0.0000000000000000E+00    0.0000000000000000E+00   -0.6451066758969531E-01    0.8272486173105049E-01    0.0000000000000000E+00    0.0000000000000000E+00    0.0000000000000000E+00    0.0000000000000000E+00    0.0000000000000000E+00
 -0.4357   0.4303    0.5573641481462905E-01    0.0000000000000000E+00    0.0000000000000000E+00   -0.6565970714504227E-02   -0.6255372033352566E-01    0.0000000000000000E+00    0.0000000000000000E+00    0.0000000000000000E+00    0.0000000000000000E+00    0.0000000000000000E+00
 -0.4396   0.4067    0.5392988820211692E-01    0.0000000000000000E+00    0.0000000000000000E+00    0.4512583955170203E-01   -0.2950457459917137E+00    0.0000000000000000E+00    0.0000000000000000E+00    0.0000000000000000E+00    0.0000000000000000E+00    0.0000000000000000E+00
 -0.4437   0.3818    0.5077748553765415E-01    0.0000000000000000E+00    0.0000000000000000E+00    0.8824052110602247E-01   -0.6195143269875324E+00    0.0000000000000000E+00    0.0000000000000000E+00    0.0000000000000000E+00    0.0000000000000000E+00    0.0000000000000000E+00
 -0.4481   0.3555    0.4646266756223891E-01    0.0000000000000000E+00    0.0000000000000000E+00    0.1215952656659698E+00   -0.1038181800522044E+01    0.0000000000000000E+00    0.0000000000000000E+00    0.0000000000000000E+00    0.0000000000000000E+00    0.0000000000000000E+00
 -0.4526   0.3281    0.4124470493952991E-01    0.0000000000000000E+00    0.0000000000000000E+00    0.1454822030194496E+00   -0.1553729726504279E+01    0.0000000000000000E+00    0.0000000000000000E+00    0.0000000000000000E+00    0.0000000000000000E+00    0.0000000000000000E+00
 -0.4573   0.2996    0.3543333706875279E-01    0.0000000000000000E+00    0.0000000000000000E+00    0.1615123821344193E+00   -0.2169509390037948E+01    0.0000000000000000E+00    0.0000000000000000E+00    0.0000000000000000E+00    0.0000000000000000E+00    0.0000000000000000E+00
 -0.4622   0.2702    0.2936769102292193E-01    0.0000000000000000E+00    0.0000000000000000E+00    0.1720120738527963E+00   -0.2886568941013038E+01    0.0000000000000000E+00    0.0000000000000000E+00    0.0000000000000000E+00    0.0000000000000000E+00    0.0000000000000000E+00
 -0.4671   0.2400    0.2340385609777165E-01    0.0000000000000000E+00    0.0000000000000000E+00    0.1792924938307236E+00   -0.3699213242602711E+01    0.0000000000000000E+00    0.0000000000000000E+00    0.0000000000000000E+00    0.0000000000000000E+00    0.0000000000000000E+00
 -0.4722   0.2091    0.1790812299333694E-01    0.0000000000000000E+00    0.0000000000000000E+00    0.1851485754107000E+00   -0.4591449397493095E+01    0.0000000000000000E+00    0.0000000000000000E+00    0.0000000000000000E+00    0.0000000000000000E+00    0.0000000000000000E+00
 -0.4774   0.1777    0.1324678700557492E-01    0.0000000000000000E+00    0.0000000000000000E+00    0.1907246897116416E+00   -0.5535877728775494E+01    0.0000000000000000E+00    0.0000000000000000E+00    0.0000000000000000E+00    0.0000000000000000E+00    0.0000000000000000E+00
 -0.4827   0.1458    0.9765680508001060E-02    0.0000000000000000E+00    0.0000000000000000E+00    0.1966426211767460E+00   -0.6495251027930465E+01    0.0000000000000000E+00    0.0000000000000000E+00    0.0000000000000000E+00    0.0000000000000000E+00    0.0000000000000000E+00
 -0.4880   0.1137    0.7759713682454339E-02    0.0000000000000000E+00    0.0000000000000000E+00    0.2032061998513128E+00   -0.7425731940288715E+01    0.0000000000000000E+00    0.0000000000000000E+00    0.0000000000000000E+00    0.0000000000000000E+00    0.0000000000000000E+00
 -0.4933   0.0814    0.7438490120527750E-02    0.0000000000000000E+00    0.0000000000000000E+00    0.2105622659855244E+00   -0.8280488418829711E+01    0.0000000000000000E+00    0.0000000000000000E+00    0.0000000000000000E+00    0.0000000000000000E+00    0.0000000000000000E+00
 -0.4986   0.0492    0.8894550522681141E-02    0.0000000000000000E+00    0.0000000000000000E+00    0.2187902456136492E+00   -0.9012647429092608E+01    0.0000000000000000E+00    0.0000000000000000E+00    0.0000000000000000E+00    0.0000000000000000E+00    0.0000000000000000E+00
 -0.5040   0.0171    0.1207848614044264E-01    0.0000000000000000E+00    0.0000000000000000E+00    0.2279402486744500E+00   -0.9577470900238966E+01    0.0000000000000000E+00    0.0000000000000000E+00    0.0000000000000000E+00    0.0000000000000000E+00    0.0000000000000000E+00
 -0.5092  -0.0148    0.1678311189768431E-01    0.0000000000000000E+00    0.0000000000000000E+00    0.2380449505834392E+00   -0.9934347818125948E+01    0.0000000000000000E+00    0.0000000000000000E+00    0.0000000000000000E+00    0.0000000000000000E+00    0.0000000000000000E+00
 -0.5144  -0.0462    0.2263959754871355E-01    0.0000000000000000E+00    0.0000000000000000E+00    0.2491208338782064E+00   -0.1004951306542872E+02    0.0000000000000000E+00    0.0000000000000000E+00    0.0000000000000000E+00    0.0000000000000000E+00    0.0000000000000000E+00
 -0.5195  -0.0771    0.2913067910976586E-01    0.0000000000000000E+00    0.0000000000000000E+00    0.2611658614396959E+00   -0.9900095668468099E+01    0.0000000000000000E+00    0.0000000000000000E+00    0.0000000000000000E+00    0.0000000000000000E+00    0.0000000000000000E+00
 -0.5245  -0.1073    0.3562754997842457E-01    0.0000000000000000E+00    0.0000000000000000E+00    0.2741564477993679E+00   -0.9479298129524794E+01    0.0000000000000000E+00    0.0000000000000000E+00    0.0000000000000000E+00    0.0000000000000000E+00    0.0000000000000000E+00
 -0.5293  -0.1367    0.4145422875644823E-01    0.0000000000000000E+00    0.0000000000000000E+00    0.2880450340900084E+00   -0.8801427830054815E+01    0.0000000000000000E+00    0.0000000000000000E+00    0.0000000000000000E+00    0.0000000000000000E+00    0.0000000000000000E+00
 -0.5340  -0.1652    0.4597509516328386E-01    0.0000000000000000E+00    0.0000000000000000E+00    0.3027589433815741E+00   -0.7904675997866190E+01    0.0000000000000000E+00    0.0000000000000000E+00    0.0000000000000000E+00    0.0000000000000000E+00    0.0000000000000000E+00
 -0.5386  -0.1926    0.4868965282266639E-01    0.0000000000000000E+00    0.0000000000000000E+00    0.3182006396412481E+00   -0.6849510832318764E+01    0.0000000000000000E+00    0.0000000000000000E+00    0.0000000000000000E+00    0.0000000000000000E+00    0.0000000000000000E+00
 -0.5429  -0.2189    0.4930988549924067E-01    0.0000000000000000E+00    0.0000000000000000E+00    0.3342488029826511E+00   -0.5711736162425303E+01    0.0000000000000000E+00    0.0000000000000000E+00    0.0000000000000000E+00    0.0000000000000000E+00    0.0000000000000000E+00
 -0.5470  -0.2438    0.4779640841292269E-01    0.0000000000000000E+00    0.0000000000000000E+00    0.3507589373252267E+00   -0.4571341691287836E+01    0.0000000000000000E+00    0.0000000000000000E+00    0.0000000000000000E+00    0.0000000000000000E+00    0.0000000000000000E+00
 -0.5509  -0.2674    0.4434257287283869E-01    0.0000000000000000E+00    0.0000000000000000E+00    0.3675619967522917E+00   -0.3500227716987328E+01    0.0000000000000000E+00    0.0000000000000000E+00    0.0000000000000000E+00    0.0000000000000000E+00    0.0000000000000000E+00
 -0.5546  -0.2895    0.3931468727985007E-01    0.0000000000000000E+00    0.0000000000000000E+00    0.3844602678155094E+00   -0.2552509698950121E+01    0.0000000000000000E+00    0.0000000000000000E+00    0.0000000000000000E+00    0.0000000000000000E+00    0.0000000000000000E+00
 -0.5579  -0.3099    0.3317129466150742E-01    0.0000000000000000E+00    0.0000000000000000E+00    0.4012216501249374E+00   -0.1759961723204880E+01    0.0000000000000000E+00    0.0000000000000000E+00    0.0000000000000000E+00    0.0000000000000000E+00    0.0000000000000000E+00
 -0.5610  -0.3287    0.2638728643398898E-01    0.0000000000000000E+00    0.0000000000000000E+00    0.4175759076195206E+00   -0.1132967815284521E+01    0.0000000000000000E+00    0.0000000000000000E+00    0.0000000000000000E+00    0.0000000000000000E+00    0.0000000000000000E+00
 -0.5639  -0.3458    0.1940032856664071E-01    0.0000000000000000E+00    0.0000000000000000E+00    0.4332179119049271E+00   -0.6653199889107748E+00    0.0000000000000000E+00    0.0000000000000000E+00    0.0000000000000000E+00    0.0000000000000000E+00    0.0000000000000000E+00
 -0.5664  -0.3610    0.1258435375270742E-01    0.0000000000000000E+00    0.0000000000000000E+00    0.4478217215498894E+00   -0.3403226398663001E+00    0.0000000000000000E+00    0.0000000000000000E+00    0.0000000000000000E+00    0.0000000000000000E+00    0.0000000000000000E+00
 -0.5686  -0.3743    0.6244351500679938E-02    0.0000000000000000E+00    0.0000000000000000E+00    0.4610651345932518E+00   -0.1358200244576936E+00    0.0000000000000000E+00    0.0000000000000000E+00    0.0000000000000000E+00    0.0000000000000000E+00    0.0000000000000000E+00
 -0.5704  -0.3857    0.6217444272779444E-03    0.0000000000000000E+00    0.0000000000000000E+00    0.4726588642826267E+00   -0.2693759098987740E-01    0.0000000000000000E+00    0.0000000000000000E+00    0.0000000000000000E+00    0.0000000000000000E+00    0.0000000000000000E+00
 -0.5720  -0.3951   -0.4100958399761036E-02    0.0000000000000000E+00    0.0000000000000000E+00    0.4823709538932378E+00    0.1347436958306718E-01    0.0000000000000000E+00    0.0000000000000000E+00    0.0000000000000000E+00    0.0000000000000000E+00    0.0000000000000000E+00
 -0.5732  -0.4024   -0.7802425752746788E-02    0.0000000000000000E+00    0.0000000000000000E+00    0.4900380878372458E+00    0.1445517712471337E-01    0.0000000000000000E+00    0.0000000000000000E+00    0.0000000000000000E+00    0.0000000000000000E+00    0.0000000000000000E+00
 -0.5741  -0.4077   -0.1043019012197710E-01    0.0000000000000000E+00    0.0000000000000000E+00    0.4955610692419767E+00    0.4154569884593310E-02    0.0000000000000000E+00    0.0000000000000000E+00    0.0000000000000000E+00    0.0000000000000000E+00    0.0000000000000000E+00
 -0.5746  -0.4108   -0.1199883289628591E-01    0.0000000000000000E+00    0.0000000000000000E+00    0.4988888745153278E+00   -0.1172951440714351E-03    0.0000000000000000E+00    0.0000000000000000E+00    0.0000000000000000E+00    0.0000000000000000E+00    0.0000000000000000E+00
 -0.5748  -0.4119   -0.1252399313069495E-01    0.0000000000000000E+00    0.0000000000000000E+00    0.5000000000000000E+00    0.0000000000000000E+00    0.0000000000000000E+00    0.0000000000000000E+00    0.0000000000000000E+00    0.0000000000000000E+00    0.0000000000000000E+00
 -0.4108   0.5746    0.2480085529849071E-01    0.0000000000000000E+00    0.0000000000000000E+00   -0.5000000000000000E+00   -0.1403547082476083E-03    0.0000000000000000E+00    0.0000000000000000E+00    0.0000000000000000E+00    0.0000000000000000E+00    0.0000000000000000E+00
 -0.4110   0.5735    0.2532463915883772E-01    0.2369369433421975E-06   -0.2370368105194616E-06   -0.4958470674680588E+00   -0.5359512942677467E-03   -0.1627457486471576E-09    0.4095801054001744E-09    0.5271231720430439E-12    0.5541201178460575E-12   -0.6811790497981973E-11
 -0.4115   0.5704    0.2687509691551495E-01    0.3896222429448178E-05   -0.8807985241930085E-06   -0.4834079200970275E+00   -0.3153267379453397E-02   -0.2157778781718565E-08    0.4132414896385050E-09    0.9995246817717796E-12    0.7731463039228892E-12   -0.2653675803404587E-10
 -0.4124   0.5651    0.2939448733555525E-01    0.1088226099956217E-04   -0.5377446079684721E-06   -0.4627525645448118E+00   -0.8253096045946097E-02   -0.6207673431590855E-08    0.4167195271579521E-09    0.1019691275860879E-11    0.7590549282870951E-12   -0.5973448471974230E-10
 -0.4136   0.5578    0.3276305936803517E-01    0.1194594520073643E-04    0.3561952815957986E-06   -0.4340335825529258E+00   -0.8599387035999301E-02   -0.6854864162080187E-08    0.4193511371486380E-09    0.8344436253082677E-12    0.7904362928079500E-12   -0.1066510560421285E-09
 -0.4151   0.5484    0.3677032607131021E-01   -0.3050686176558637E-05    0.1282444328811316E-05   -0.3975354094619185E+00    0.5050787112472753E-02    0.1204896851210715E-08    0.4216211863146413E-09    0.5336790037668848E-12    0.7867196477606697E-12   -0.1685634964943006E-09
 -0.4170   0.5370    0.4112812545536398E-01   -0.3748161434846991E-04    0.1865035130036615E-05   -0.3537344775283180E+00    0.3590200755825623E-01    0.1990251489749640E-07    0.4235669653560037E-09    0.1901603874365776E-12    0.8093126863117917E-12   -0.2476054014599605E-09
 -0.4192   0.5237    0.4549651502736068E-01   -0.8593093433672634E-04    0.1935532199311407E-05   -0.3033675163824195E+00    0.7920707202399886E-01    0.4618522650868625E-07    0.4257088696314748E-09   -0.1121047699115252E-12    0.7802820889413198E-12   -0.3479603168099477E-09
 -0.4217   0.5085    0.4951280712996168E-01   -0.1349165310115133E-03    0.1438372303250725E-05   -0.2475100935663639E+00    0.1226430611095469E+00    0.7285987731295449E-07    0.4286477219180018E-09   -0.3590634733985354E-12    0.7772957624774257E-12   -0.4734990524668525E-09
 -0.4245   0.4915    0.5282218556465138E-01   -0.1649822019724519E-03    0.4120361646138516E-06   -0.1876631703195141E+00    0.1483556276105727E+00    0.8939186124072700E-07    0.4332776080192419E-09   -0.5994614526994013E-12    0.7639151897859131E-12   -0.6289373119527930E-09
 -0.4276   0.4727    0.5511055505179562E-01   -0.1534971732318811E-03   -0.1053275571092770E-05   -0.1258257986179983E+00    0.1354618219117303E+00    0.8366633126928918E-07    0.4405675550940569E-09   -0.9446332605023144E-12    0.7622721898137286E-12   -0.8140490781460841E-09
 -0.4310   0.4522    0.5613710915292482E-01   -0.7829008211023545E-04   -0.2803489083259500E-05   -0.6450097775206065E-01    0.6347892529308162E-01    0.4373317763785226E-07    0.4514770206992536E-09   -0.1489613987715188E-11    0.7531163193075230E-12   -0.1018902032190461E-08
 -0.4347   0.4301    0.5576079901222991E-01    0.7852315594912752E-04   -0.4663577369667597E-05   -0.6555368154085149E-02   -0.8419979757509526E-01   -0.3996755184219050E-07    0.4667535039026838E-09   -0.2288551292917163E-11    0.7574565974444170E-12   -0.1217618561533129E-08
 -0.4386   0.4065    0.5395428849057875E-01    0.3281342426281702E-03   -0.6481589381089651E-05    0.4513661228478587E-01   -0.3180259193587548E+00   -0.1734539491999494E-06    0.4866036358575077E-09   -0.3340640264415384E-11    0.6952910469593121E-12   -0.1366143045911095E-08
 -0.4427   0.3816    0.5080286278267569E-01    0.6757076393423825E-03   -0.8193418636209839E-05    0.8825051350638008E-01   -0.6428936864272726E+00   -0.3594556171822212E-06    0.5101462707129967E-09   -0.4636187267426095E-11    0.6502576255229542E-12   -0.1410008387825457E-08
 -0.4470   0.3553    0.4649030108839301E-01    0.1123641641089451E-02   -0.9818244391978011E-05    0.1216035863684840E+00   -0.1061056906743343E+01   -0.5992722861429133E-06    0.5349913775876125E-09   -0.6191269719124648E-11    0.6077985337249459E-12   -0.1302766450272941E-08
 -0.4515   0.3279    0.4127607578415674E-01    0.1674692294900195E-02   -0.1141159674742694E-04    0.1454883216912279E+00   -0.1574987683577632E+01   -0.8943836279211145E-06    0.5574732411806060E-09   -0.8064174328303864E-11    0.5188696694524708E-12   -0.1027321921975854E-08
 -0.4562   0.2995    0.3546972994596114E-01    0.2332182871696965E-02   -0.1298794967886006E-04    0.1615162822998427E+00   -0.2187539154869202E+01   -0.1246628509931461E-05    0.5733816442476947E-09   -0.1035696528539631E-10    0.4357000871202388E-12   -0.6082897588410852E-09
 -0.4611   0.2701    0.2940966092303698E-01    0.3096868982950668E-02   -0.1448542567105094E-04    0.1720141627035484E+00   -0.2899076499703489E+01   -0.1656466118381555E-05    0.5789955910551203E-09   -0.1314480468916912E-10    0.3221034550193735E-12   -0.1027967225231130E-09
 -0.4661   0.2398    0.2345088804164524E-01    0.3962273670987696E-02   -0.1576700842323665E-04    0.1792933522824678E+00   -0.3703191739294502E+01   -0.2120505511062215E-05    0.5716691391099982E-09   -0.1646107902764093E-10    0.1948718963973306E-12    0.4211345300264568E-09
 -0.4712   0.2090    0.1795853393089186E-01    0.4910981485600868E-02   -0.1666256191154281E-04    0.1851487225570590E+00   -0.4583342902808361E+01   -0.2629471088454482E-05    0.5498745347942702E-09   -0.2014393166160922E-10    0.9325873406851315E-13    0.9075197107471719E-09
 -0.4764   0.1775    0.1329791403729179E-01    0.5913537531230213E-02   -0.1701193969017527E-04    0.1907244730379187E+00   -0.5511901033272572E+01   -0.3167622811330593E-05    0.5131185268347771E-09   -0.2391443293392470E-10   -0.1965094753586527E-13    0.1322822934524126E-08
 -0.4816   0.1457    0.9814174918425742E-02    0.6930165702254857E-02   -0.1670009349664675E-04    0.1966422246142242E+00   -0.6451803550669360E+01   -0.3713649729193114E-05    0.4616983878547032E-09   -0.2733585580116937E-10   -0.1346839306748393E-12    0.1655314548192760E-08
 -0.4869   0.1135    0.7801873981917864E-02    0.7914263508429102E-02   -0.1566375102048225E-04    0.2032057014836694E+00   -0.7359825127432481E+01   -0.4242549559537484E-05    0.3967915336577921E-09   -0.3000455439661209E-10   -0.2182837244291136E-12    0.1907159116396051E-08
 -0.4923   0.0813    0.7470482394880359E-02    0.8816227317090900E-02   -0.1388241813513973E-04    0.2105616913350363E+00   -0.8190126855215523E+01   -0.4727676911586472E-05    0.3204164260306452E-09   -0.3159542072417310E-10   -0.2980116153850076E-12    0.2086415169973155E-08
 -0.4976   0.0490    0.8912557476883529E-02    0.9586580416722012E-02   -0.1135967820260726E-04    0.2187895993148726E+00   -0.8897150075086827E+01   -0.5142420659692135E-05    0.2353320351089483E-09   -0.3196598541421736E-10   -0.3004957394026064E-12    0.2202870826722991E-08
 -0.5029   0.0169    0.1207876862670111E-01    0.1017827035583681E-01   -0.8113979351221788E-05    0.2279395289850170E+00   -0.9437726733466226E+01   -0.5461449016944019E-05    0.1448369375822711E-09   -0.3113265201193371E-10   -0.2924743780496897E-12    0.2265754740944648E-08
 -0.5082  -0.0150    0.1676212912043393E-01    0.1054877013644346E-01   -0.4184063693929001E-05    0.2380441550540838E+00   -0.9773020770393511E+01   -0.5661823608910361E-05    0.5241720252291415E-10   -0.2926853204243685E-10   -0.2139746713147872E-12    0.2282356095784088E-08
 -0.5133  -0.0464    0.2259420904329303E-01    0.1066293818603686E-01    0.3478873557274439E-06    0.2491199614410725E+00   -0.9871142452225930E+01   -0.5724562546733756E-05   -0.3865313397046627E-10   -0.2664490850179391E-10   -0.1174962904748611E-12    0.2259657454206643E-08
 -0.5184  -0.0773    0.2905853733189010E-01    0.1049725891811327E-01    0.5324018953471695E-05    0.2611649130888996E+00   -0.9711034819852950E+01   -0.5636896540455442E-05   -0.1256198357141303E-09   -0.2357813944087184E-10   -0.4555383847915095E-14    0.2202592360237010E-08
 -0.5234  -0.1075    0.3552758774987132E-01    0.1004523860693103E-01    0.1048535287490644E-04    0.2741554264641117E+00   -0.9287360100154975E+01   -0.5395221803079047E-05   -0.2065518416027867E-09   -0.2038702540119175E-10    0.1616970446427501E-12    0.2116551307482228E-08
 -0.5283  -0.1369    0.4132718789857186E-01    0.9322606555496342E-02    0.1546935601546748E-04    0.2880439437778095E+00   -0.8615202637237966E+01   -0.5007870477859751E-05   -0.2803582366261992E-09   -0.1735445120942813E-10    0.3115563362854346E-12    0.2005734675569748E-08
 -0.5330  -0.1654    0.4582383345141527E-01    0.8370124738163646E-02    0.1984875459814182E-04    0.3027577877024009E+00   -0.7732517904431399E+01   -0.4496699875838003E-05   -0.3468015805085933E-09   -0.1468664079240511E-10    0.4569955525113301E-12    0.1874960532319281E-08
 -0.5375  -0.1928    0.4851911313803017E-01    0.7251800725795547E-02    0.2320579265770690E-04    0.3181994201371792E+00   -0.6698424713550565E+01   -0.3896081320990867E-05   -0.4061660105469933E-09   -0.1251065917529104E-10    0.5997702334781252E-12    0.1727807882878629E-08
 -0.5418  -0.2190    0.4912655767094375E-01    0.6047548228040338E-02    0.2522934236152097E-04    0.3342475181096423E+00   -0.5586406309267772E+01   -0.3249033619798447E-05   -0.4590102742341173E-09   -0.1082273159980218E-10    0.7044226313368540E-12    0.1569014747987429E-08
 -0.5460  -0.2440    0.4760745626763036E-01    0.4841495990771646E-02    0.2578870713889826E-04    0.3507575832034802E+00   -0.4473651981343716E+01   -0.2600829145177174E-05   -0.5058762644893910E-09   -0.9558354108207823E-11    0.7451261829771738E-12    0.1402796502222858E-08
 -0.5499  -0.2676    0.4415478553506432E-01    0.3709166911728081E-02    0.2496388528181187E-04    0.3675605706288815E+00   -0.3429341452847734E+01   -0.1992182864853989E-05   -0.5471113284638562E-09   -0.8574529974936240E-11    0.8342632140667661E-12    0.1233200838321458E-08
 -0.5535  -0.2896    0.3913366311126814E-01    0.2707373555682635E-02    0.2300409306395407E-04    0.3844587743147214E+00   -0.2505509677996062E+01   -0.1453666625371343E-05   -0.5827537688518625E-09   -0.7709208271755585E-11    0.8280737207044808E-12    0.1064404666836771E-08
 -0.5569  -0.3101    0.3300097066200842E-01    0.1869482146768343E-02    0.2025270975353077E-04    0.4012201088602263E+00   -0.1732700791941691E+01   -0.1003300761103903E-05   -0.6127421209312089E-09   -0.6848202560583161E-11    0.8546219287808299E-12    0.8998197551651765E-09
 -0.5600  -0.3289    0.2622998783362376E-01    0.1206411642276488E-02    0.1704657814693207E-04    0.4175743591409555E+00   -0.1120949993041486E+01   -0.6469113300427451E-06   -0.6370333774374792E-09   -0.5920295503836215E-11    0.8434225540199236E-12    0.7432581460020682E-09
 -0.5628  -0.3460    0.1925708761055567E-01    0.7116417181356905E-03    0.1365718371173187E-04    0.4332164182535383E+00   -0.6642599705146923E+00   -0.3810512495364242E-06   -0.6557911193250110E-09   -0.4915107383596240E-11    0.8314876565052032E-12    0.5967109549531724E-09
 -0.5653  -0.3612    0.1245543128768343E-01    0.3675645695693944E-03    0.1025134089386271E-04    0.4478203587786171E+00   -0.3464642779845981E+00   -0.1961683582249522E-06   -0.6694101523097018E-09   -0.3890101782366706E-11    0.8312101007490469E-12    0.4628379624005419E-09
 -0.5675  -0.3745    0.6129524186927290E-02    0.1507203718431961E-03    0.6937151856247197E-05    0.4610639775547420E+00   -0.1458497729934020E+00   -0.7975943468408187E-07   -0.6786828061350336E-09   -0.2930797965428056E-11    0.8113301697143527E-12    0.3438237186279003E-09
 -0.5694  -0.3859    0.5202955052550756E-03    0.3463249903452300E-04    0.3816425558113503E-05    0.4726579677108146E+00   -0.3788247179114953E-01   -0.1749739637120033E-07   -0.6845499150170964E-09   -0.2140846527831641E-11    0.8058102796137945E-12    0.2404480278078713E-09
 -0.5709  -0.3952   -0.4190894539540833E-02   -0.9630323615838899E-05    0.1146508526130489E-05    0.4823703365697107E+00    0.4432047384601666E-02    0.5961956124698936E-08   -0.6883013638214752E-09   -0.1588489756398914E-11    0.8151647759579994E-12    0.1545184631288055E-09
 -0.5721  -0.4026   -0.7884978990081674E-02   -0.1289637151224784E-04   -0.6658610221312612E-06    0.4900377266718081E+00    0.9511882215460718E-02    0.7408913792481060E-08   -0.6910963424797134E-09   -0.1283688433328933E-11    0.8057352528234585E-12    0.8736273033119191E-10
 -0.5730  -0.4078   -0.1051260448919755E-01   -0.4148060536446120E-05   -0.1084500728603480E-05    0.4955609063928534E+00    0.3691540982817391E-02    0.2217144459940294E-08   -0.6945245763050056E-09   -0.1105947798618612E-11    0.8582852310812239E-12    0.3890765422516484E-10
 -0.5735  -0.4110   -0.1208355989612661E-01   -0.1254448465615278E-06   -0.1256968782373239E-06    0.4988888336854439E+00    0.5592771333478037E-03    0.1081897918120247E-09   -0.6984233597278483E-09   -0.5880016525766640E-12    0.6008628924275561E-12    0.9677002580331384E-11
 -0.5737  -0.4120   -0.1260881768553192E-01    0.0000000000000000E+00    0.0000000000000000E+00    0.5000000000000000E+00   -0.1167374107180427E-03    0.0000000000000000E+00    0.0000000000000000E+00    0.0000000000000000E+00    0.0000000000000000E+00    0.0000000000000000E+00
 -0.4077   0.5741    0.2506002293804541E-01    0.0000000000000000E+00    0.0000000000000000E+00   -0.5000000000000000E+00   -0.4220493206016682E-02    0.0000000000000000E+00    0.0000000000000000E+00    0.0000000000000000E+00    0.0000000000000000E+00    0.0000000000000000E+00
 -0.4078   0.5730    0.2558249254153834E-01    0.8804112115006138E-06   -0.3895875544339335E-05   -0.4958456721698479E+00   -0.3152692480126965E-02   -0.2157614943541322E-08    0.4130491935896291E-09    0.7846876902591060E-12    0.1009961211884125E-11   -0.6616152070648695E-11
 -0.4084   0.5699    0.2712969662968917E-01    0.9192066588513301E-05   -0.9193860628053706E-05   -0.4834023447560993E+00   -0.9060953353321789E-03   -0.2536833298212294E-07    0.4144605639591625E-09    0.2305612298303394E-11    0.2458653289641455E-11   -0.2637846538422473E-10
 -0.4092   0.5646    0.2963807339903136E-01    0.2430868437013629E-04   -0.5667477338534587E-05   -0.4627400711063381E+00    0.6537514806380186E-03   -0.6920018498857159E-07    0.4168939941526228E-09    0.3117150634834864E-11    0.3020413129675714E-11   -0.5937363014435482E-10
 -0.4104   0.5573    0.3298371725727151E-01    0.2050415908553503E-04    0.6119605761938475E-05   -0.4340115922293339E+00    0.4079320833238744E-02   -0.6844217522450042E-07    0.4193276459570072E-09    0.2884128699753852E-11    0.3215935330536102E-11   -0.1063951444307820E-09
 -0.4120   0.5479    0.3696179524685882E-01   -0.3593600200665187E-04    0.1910302417471829E-04   -0.3975015606240342E+00    0.1588400384537899E-01    0.5529975469245129E-07    0.4215228530807247E-09    0.2051649648782128E-11    0.3267383759386622E-11   -0.1683739397906336E-09
 -0.4139   0.5365    0.4128988755263851E-01   -0.1586002420316685E-03    0.2748591972790860E-04   -0.3536864973867117E+00    0.3952889099720089E-01    0.3315410610639705E-06    0.4235446819655930E-09    0.9630154746559372E-12    0.3242324811414399E-11   -0.2475238833343774E-09
 -0.4161   0.5232    0.4563161627173953E-01   -0.3286673381352215E-03    0.2822934190967651E-04   -0.3033030242133206E+00    0.7163945594524618E-01    0.7172838351654921E-06    0.4257723531381208E-09   -0.2159557255243527E-13    0.3183207170076585E-11   -0.3476471957530869E-09
 -0.4186   0.5080    0.4962596556050280E-01   -0.4959975978457656E-03    0.2037040885076387E-04   -0.2474266213750048E+00    0.1016616114856348E+00    0.1101938015597287E-05    0.4288065753171866E-09   -0.8351618008273221E-12    0.3153236352582134E-11   -0.4733838945836233E-09