
title="result"
variables="x","y","P","u","v","omega","psi"
zone,j=49, i=49,f=point
  -0.4999999999999483	  -0.5000000000000000	   0.0000000000000000	   0.0000000000000000	   0.0000000000000000	   0.0000000000000000	   0.0000000000000000	
  -0.4989294616192501	  -0.5000000000000000	   0.0000000000000000	   0.0000000000000000	   0.0000000000000000	  -0.0001021552164124	   0.0000000000000000	
  -0.4957224306868535	  -0.5000000000000000	   0.0000000000000000	   0.0000000000000000	   0.0000000000000000	  -0.0004669651462057	   0.0000000000000000	
  -0.4903926402015635	  -0.5000000000000000	   0.0000000000000000	   0.0000000000000000	   0.0000000000000000	   0.0006039234436943	   0.0000000000000000	
  -0.4829629131444825	  -0.5000000000000000	   0.0000000000000000	   0.0000000000000000	   0.0000000000000000	   0.0044392565745320	   0.0000000000000000	
  -0.4734650647475012	  -0.5000000000000000	   0.0000000000000000	   0.0000000000000000	   0.0000000000000000	   0.0106319804336507	   0.0000000000000000	
  -0.4619397662555917	  -0.5000000000000000	   0.0000000000000000	   0.0000000000000000	   0.0000000000000000	   0.0174185846506002	   0.0000000000000000	
  -0.4484363707662925	  -0.5000000000000000	   0.0000000000000000	   0.0000000000000000	   0.0000000000000000	   0.0222137456688423	   0.0000000000000000	
  -0.4330127018921677	  -0.5000000000000000	   0.0000000000000000	   0.0000000000000000	   0.0000000000000000	   0.0222592800365351	   0.0000000000000000	
  -0.4157348061512209	  -0.5000000000000000	   0.0000000000000000	   0.0000000000000000	   0.0000000000000000	   0.0151606038396469	   0.0000000000000000	
  -0.3966766701455659	  -0.5000000000000000	   0.0000000000000000	   0.0000000000000000	   0.0000000000000000	  -0.0007923684626607	   0.0000000000000000	
  -0.3759199037394370	  -0.5000000000000000	   0.0000000000000000	   0.0000000000000000	   0.0000000000000000	  -0.0265655602839137	   0.0000000000000000	
  -0.3535533905932221	  -0.5000000000000000	   0.0000000000000000	   0.0000000000000000	   0.0000000000000000	  -0.0625645155496894	   0.0000000000000000	
  -0.3296729075499828	  -0.5000000000000000	   0.0000000000000000	   0.0000000000000000	   0.0000000000000000	  -0.1089279405886853	   0.0000000000000000	
  -0.3043807145043087	  -0.5000000000000000	   0.0000000000000000	   0.0000000000000000	   0.0000000000000000	  -0.1657795190292563	   0.0000000000000000	
  -0.2777851165097495	  -0.5000000000000000	   0.0000000000000000	   0.0000000000000000	   0.0000000000000000	  -0.2332978793148018	   0.0000000000000000	
  -0.2499999999999483	  -0.5000000000000000	   0.0000000000000000	   0.0000000000000000	   0.0000000000000000	  -0.3115615631012319	   0.0000000000000000	
  -0.2211443451094489	  -0.5000000000000000	   0.0000000000000000	   0.0000000000000000	   0.0000000000000000	  -0.4001892547280314	   0.0000000000000000	
  -0.1913417161824932	  -0.5000000000000000	   0.0000000000000000	   0.0000000000000000	   0.0000000000000000	  -0.4978584127605773	   0.0000000000000000	
  -0.1607197326515291	  -0.5000000000000000	   0.0000000000000000	   0.0000000000000000	   0.0000000000000000	  -0.6017983306423678	   0.0000000000000000	
  -0.1294095225512087	  -0.5000000000000000	   0.0000000000000000	   0.0000000000000000	   0.0000000000000000	  -0.7073831603409109	   0.0000000000000000	
  -0.0975451610080124	  -0.5000000000000000	   0.0000000000000000	   0.0000000000000000	   0.0000000000000000	  -0.8079624990441354	   0.0000000000000000	
  -0.0652630961099741	  -0.5000000000000000	   0.0000000000000000	   0.0000000000000000	   0.0000000000000000	  -0.8950880225477759	   0.0000000000000000	
  -0.0327015646150199	  -0.5000000000000000	   0.0000000000000000	   0.0000000000000000	   0.0000000000000000	  -0.9592596867155972	   0.0000000000000000	
   0.0000000000000517	  -0.5000000000000000	   0.0000000000000000	   0.0000000000000000	   0.0000000000000000	  -0.9912279748758237	   0.0000000000000000	
   0.0327015646151233	  -0.5000000000000000	   0.0000000000000000	   0.0000000000000000	   0.0000000000000000	  -0.9837096463257821	   0.0000000000000000	
   0.0652630961100775	  -0.5000000000000000	   0.0000000000000000	   0.0000000000000000	   0.0000000000000000	  -0.9331693300068917	   0.0000000000000000	
   0.0975451610081158	  -0.5000000000000000	   0.0000000000000000	   0.0000000000000000	   0.0000000000000000	  -0.8411498869579288	   0.0000000000000000	
   0.1294095225513120	  -0.5000000000000000	   0.0000000000000000	   0.0000000000000000	   0.0000000000000000	  -0.7146458097184527	   0.0000000000000000	
   0.1607197326516325	  -0.5000000000000000	   0.0000000000000000	   0.0000000000000000	   0.0000000000000000	  -0.5652435525368040	   0.0000000000000000	
   0.1913417161825965	  -0.5000000000000000	   0.0000000000000000	   0.0000000000000000	   0.0000000000000000	  -0.4071683164281678	   0.0000000000000000	
   0.2211443451095523	  -0.5000000000000000	   0.0000000000000000	   0.0000000000000000	   0.0000000000000000	  -0.2547671255078154	   0.0000000000000000	
   0.2500000000000516	  -0.5000000000000000	   0.0000000000000000	   0.0000000000000000	   0.0000000000000000	  -0.1201514013125396	   0.0000000000000000	
   0.2777851165098528	  -0.5000000000000000	   0.0000000000000000	   0.0000000000000000	   0.0000000000000000	  -0.0116008892367683	   0.0000000000000000	
   0.3043807145044120	  -0.5000000000000000	   0.0000000000000000	   0.0000000000000000	   0.0000000000000000	   0.0669956563884060	   0.0000000000000000	
   0.3296729075500861	  -0.5000000000000000	   0.0000000000000000	   0.0000000000000000	   0.0000000000000000	   0.1157708689310987	   0.0000000000000000	
   0.3535533905933254	  -0.5000000000000000	   0.0000000000000000	   0.0000000000000000	   0.0000000000000000	   0.1379243340547112	   0.0000000000000000	
   0.3759199037395403	  -0.5000000000000000	   0.0000000000000000	   0.0000000000000000	   0.0000000000000000	   0.1385888264567435	   0.0000000000000000	
   0.3966766701456692	  -0.5000000000000000	   0.0000000000000000	   0.0000000000000000	   0.0000000000000000	   0.1238034711547099	   0.0000000000000000	
   0.4157348061513242	  -0.5000000000000000	   0.0000000000000000	   0.0000000000000000	   0.0000000000000000	   0.0997263067513985	   0.0000000000000000	
   0.4330127018922710	  -0.5000000000000000	   0.0000000000000000	   0.0000000000000000	   0.0000000000000000	   0.0720604305761364	   0.0000000000000000	
   0.4484363707663958	  -0.5000000000000000	   0.0000000000000000	   0.0000000000000000	   0.0000000000000000	   0.0456242519894560	   0.0000000000000000	
   0.4619397662556951	  -0.5000000000000000	   0.0000000000000000	   0.0000000000000000	   0.0000000000000000	   0.0239789243651213	   0.0000000000000000	
   0.4734650647476045	  -0.5000000000000000	   0.0000000000000000	   0.0000000000000000	   0.0000000000000000	   0.0091211201931906	   0.0000000000000000	
   0.4829629131445858	  -0.5000000000000000	   0.0000000000000000	   0.0000000000000000	   0.0000000000000000	   0.0012696217358213	   0.0000000000000000	
   0.4903926402016669	  -0.5000000000000000	   0.0000000000000000	   0.0000000000000000	   0.0000000000000000	  -0.0010661702687786	   0.0000000000000000	
   0.4957224306869569	  -0.5000000000000000	   0.0000000000000000	   0.0000000000000000	   0.0000000000000000	  -0.0006130849402911	   0.0000000000000000	
   0.4989294616193534	  -0.5000000000000000	   0.0000000000000000	   0.0000000000000000	   0.0000000000000000	  -0.0000238673131727	   0.0000000000000000	
   0.5000000000000517	  -0.5000000000000000	   0.0000000000000000	   0.0000000000000000	   0.0000000000000000	   0.0000000000000000	   0.0000000000000000	
  -0.4999999999999484	  -0.4989294616193017	   0.0000000000000000	   0.0000000000000000	   0.0000000000000000	  -0.0001053133001632	   0.0000000000000000	
  -0.4989294616192502	  -0.4989294616193017	   0.0539849029356368	  -0.0000000785340238	   0.0000000645170637	  -0.0000732971118138	  -0.0000000001108908	
  -0.4957224306868536	  -0.4989294616193017	   0.0539868832815829	  -0.0000002786520589	  -0.0000000162212965	  -0.0000391960938773	  -0.0000000005412447	
  -0.4903926402015636	  -0.4989294616193017	   0.0539927966201469	   0.0000008531385755	  -0.0000002159183263	   0.0009956053414690	  -0.0000000006938702	
  -0.4829629131444826	  -0.4989294616193017	   0.0539961566133489	   0.0000047192736439	  -0.0000003377313198	   0.0043835997724251	   0.0000000000648637	
  -0.4734650647475013	  -0.4989294616193017	   0.0539867515132583	   0.0000110231612679	  -0.0000003655178954	   0.0099622502022432	   0.0000000017955766	
  -0.4619397662555918	  -0.4989294616193017	   0.0539556626437028	   0.0000179536214115	  -0.0000002735647740	   0.0161202058541313	   0.0000000039514692	
  -0.4484363707662926	  -0.4989294616193017	   0.0538972746486573	   0.0000227981700145	  -0.0000001051554047	   0.0203741335214158	   0.0000000055156825	
  -0.4330127018921678	  -0.4989294616193017	   0.0538101658923659	   0.0000226314849936	   0.0000001190841355	   0.0200163542599517	   0.0000000051397594	
  -0.4157348061512210	  -0.4989294616193017	   0.0536964294040165	   0.0000148935062765	   0.0000003601990354	   0.0126590153458406	   0.0000000013244939	
  -0.3966766701455660	  -0.4989294616193017	   0.0535604473936556	  -0.0000022569853290	   0.0000006001438377	  -0.0034284893555555	  -0.0000000073731075	
  -0.3759199037394371	  -0.4989294616193017	   0.0534072877438569	  -0.0000298734658321	   0.0000008200560953	  -0.0292480783795936	  -0.0000000221004958	
  -0.3535533905932222	  -0.4989294616193017	   0.0532416147630355	  -0.0000684068047559	   0.0000010203046170	  -0.0652372778191269	  -0.0000000435072234	
  -0.3296729075499829	  -0.4989294616193017	   0.0530673415036405	  -0.0001180157333649	   0.0000012014094519	  -0.1115535203233468	  -0.0000000716811948	
  -0.3043807145043088	  -0.4989294616193017	   0.0528882770176770	  -0.0001788309380071	   0.0000013726625517	  -0.1683177822244741	  -0.0000001062703854	
  -0.2777851165097496	  -0.4989294616193017	   0.0527093722000749	  -0.0002510324539309	   0.0000015357739835	  -0.2356872271361263	  -0.0000001467275144	
  -0.2499999999999485	  -0.4989294616193017	   0.0525382083175442	  -0.0003346843772262	   0.0000016906402444	  -0.3137034353761072	  -0.0000001924963116	
  -0.2211443451094490	  -0.4989294616193017	   0.0523861632640561	  -0.0004293553897639	   0.0000018250170461	  -0.4019413620371872	  -0.0000002430093132	
  -0.1913417161824933	  -0.4989294616193017	   0.0522689259019492	  -0.0005336067536128	   0.0000019213465821	  -0.4990360661546089	  -0.0000002974536320	
  -0.1607197326515293	  -0.4989294616193017	   0.0522059416263047	  -0.0006444572060859	   0.0000019517868631	  -0.6021881032827955	  -0.0000003544119833	
  -0.1294095225512088	  -0.4989294616193017	   0.0522185236041520	  -0.0007569535395781	   0.0000018866943252	  -0.7067701136730260	  -0.0000004115061604	
  -0.0975451610080126	  -0.4989294616193017	   0.0523263683106759	  -0.0008639988065439	   0.0000016946887658	  -0.8061734085393886	  -0.0000004652191899	
  -0.0652630961099743	  -0.4989294616193017	   0.0525426367707641	  -0.0009566005441546	   0.0000013538870620	  -0.8920469791739819	  -0.0000005110071077	
  -0.0327015646150200	  -0.4989294616193017	   0.0528682956312185	  -0.0010246719580783	   0.0000008562431178	  -0.9550461434062538	  -0.0000005437915294	
   0.0000000000000516	  -0.4989294616193017	   0.0532872569965884	  -0.0010584165393943	   0.0000002186202319	  -0.9861190761890124	  -0.0000005587616556	
   0.0327015646151232	  -0.4989294616193017	   0.0537643358266060	  -0.0010501456963573	  -0.0000005157776341	  -0.9781847252967987	  -0.0000005523326133	
   0.0652630961100774	  -0.4989294616193017	   0.0542479010642584	  -0.0009961565223389	  -0.0000012765784606	  -0.9278614235245021	  -0.0000005229769649	
   0.0975451610081157	  -0.4989294616193017	   0.0546777719677114	  -0.0008981289548768	  -0.0000019780817781	  -0.8367444065441737	  -0.0000004717251153	
   0.1294095225513119	  -0.4989294616193017	   0.0549969028726564	  -0.0007635090445725	  -0.0000025336347287	  -0.7117507251332403	  -0.0000004021801518	
   0.1607197326516324	  -0.4989294616193017	   0.0551634812366551	  -0.0006045944269704	  -0.0000028757176485	  -0.5642678142973148	  -0.0000003200805623	
   0.1913417161825963	  -0.4989294616193017	   0.0551595355765898	  -0.0004364675813308	  -0.0000029693894409	  -0.4082482537635732	  -0.0000002324743886	
   0.2211443451095522	  -0.4989294616193017	   0.0549933348080615	  -0.0002743379373345	  -0.0000028191620828	  -0.2577583884981539	  -0.0000001466978416	
   0.2500000000000515	  -0.4989294616193017	   0.0546953050761309	  -0.0001310504232544	  -0.0000024639437901	  -0.1246843757694245	  -0.0000000693181896	
   0.2777851165098527	  -0.4989294616193017	   0.0543094960984782	  -0.0000153972157739	  -0.0000019651347154	  -0.0171709802590454	  -0.0000000052932165	
   0.3043807145044119	  -0.4989294616193017	   0.0538837920795249	   0.0000684791010571	  -0.0000013915479670	   0.0609304022618525	   0.0000000425287550	
   0.3296729075500860	  -0.4989294616193017	   0.0534616998757915	   0.0001206995966297	  -0.0000008063875505	   0.1097144538711101	   0.0000000734548022	
   0.3535533905933253	  -0.4989294616193017	   0.0530772429402150	   0.0001446444527617	  -0.0000002608028773	   0.1322951261732664	   0.0000000886556428	
   0.3759199037395402	  -0.4989294616193017	   0.0527530327718382	   0.0001457534087353	   0.0000002090858366	   0.1337036547232094	   0.0000000906310122	
   0.3966766701456690	  -0.4989294616193017	   0.0525006393773953	   0.0001304369881798	   0.0000005781742813	   0.1198753924069734	   0.0000000826675735	
   0.4157348061513241	  -0.4989294616193017	   0.0523221378386737	   0.0001052356249454	   0.0000008314309982	   0.0968733274422251	   0.0000000683310069	
   0.4330127018922709	  -0.4989294616193017	   0.0522119685063039	   0.0000762052351375	   0.0000009582725038	   0.0703057239820876	   0.0000000511090424	
   0.4484363707663956	  -0.4989294616193017	   0.0521587697926379	   0.0000484525610437	   0.0000009567158583	   0.0448978589913772	   0.0000000340773666	
   0.4619397662556949	  -0.4989294616193017	   0.0521472142317285	   0.0000257366232466	   0.0000008313425120	   0.0241072192552125	   0.0000000196523814	
   0.4734650647476044	  -0.4989294616193017	   0.0521601546659857	   0.0000101389272211	   0.0000006048495552	   0.0098310931227101	   0.0000000092827708	
   0.4829629131445857	  -0.4989294616193017	   0.0521812421685822	   0.0000018484709922	   0.0000003173825962	   0.0021946751965382	   0.0000000032957563	
   0.4903926402016668	  -0.4989294616193017	   0.0521981138328252	  -0.0000007527095155	   0.0000000524938434	  -0.0003241859057923	   0.0000000008310570	
   0.4957224306869568	  -0.4989294616193017	   0.0522054323312988	  -0.0000005144205142	  -0.0000000996497701	  -0.0003482464787880	   0.0000000002858623	
   0.4989294616193533	  -0.4989294616193017	   0.0522061965434328	  -0.0000000378733173	  -0.0000000444616011	  -0.0000802492008299	   0.0000000001198587	
   0.5000000000000516	  -0.4989294616193017	   0.0000000000000000	   0.0000000000000000	   0.0000000000000000	  -0.0000403205101951	   0.0000000000000000	
  -0.4999999999999488	  -0.4957224306869052	   0.0000000000000000	   0.0000000000000000	   0.0000000000000000	  -0.0004261894094387	   0.0000000000000000	
  -0.4989294616192505	  -0.4957224306869052	   0.0539829243855610	  -0.0000001384673906	   0.0000002173542138	  -0.0000160376825225	  -0.0000000005904172	
  -0.4957224306868540	  -0.4957224306869052	   0.0539849018232001	   0.0000003180539305	  -0.0000006901396492	   0.0007774340917692	  -0.0000000017323231	
  -0.4903926402015640	  -0.4957224306869052	   0.0539889641374396	   0.0000049776500566	  -0.0000030285406110	   0.0018540037829386	   0.0000000049468742	
  -0.4829629131444829	  -0.4957224306869052	   0.0539908858424932	   0.0000182539402640	  -0.0000049107797665	   0.0041702606344127	   0.0000000298012056	
  -0.4734650647475016	  -0.4957224306869052	   0.0539816749222482	   0.0000399420154306	  -0.0000052668933231	   0.0080493272313244	   0.0000000725817488	
  -0.4619397662555921	  -0.4957224306869052	   0.0539523295096091	   0.0000638406385934	  -0.0000039762323832	   0.0123910447971198	   0.0000001207985572	
  -0.4484363707662929	  -0.4957224306869052	   0.0538968801737687	   0.0000798238957952	  -0.0000013739570322	   0.0150416065001827	   0.0000001538635979	
  -0.4330127018921681	  -0.4957224306869052	   0.0538133639226078	   0.0000765727048040	   0.0000020666682306	   0.0134654124598186	   0.0000001480921570	
  -0.4157348061512214	  -0.4957224306869052	   0.0537034372417890	   0.0000439494788800	   0.0000058560578527	   0.0053118887088076	   0.0000000811783114	
  -0.3966766701455663	  -0.4957224306869052	   0.0535711313897970	  -0.0000255088859621	   0.0000096152939023	  -0.0112025473005893	  -0.0000000645842280	
  -0.3759199037394375	  -0.4957224306869052	   0.0534213610976214	  -0.0001362157548009	   0.0000131104358574	  -0.0371798514851683	  -0.0000003007998527	
  -0.3535533905932225	  -0.4957224306869052	   0.0532587618798673	  -0.0002901705697163	   0.0000162781716543	  -0.0731527044444086	  -0.0000006331993223	
  -0.3296729075499832	  -0.4957224306869052	   0.0530873346646546	  -0.0004881218922431	   0.0000191669870179	  -0.1193339917240026	  -0.0000010632925225	
  -0.3043807145043091	  -0.4957224306869052	   0.0529109778198566	  -0.0007305821166905	   0.0000218755136990	  -0.1758399560394978	  -0.0000015904885138	
  -0.2777851165097500	  -0.4957224306869052	   0.0527346939675701	  -0.0010181394452916	   0.0000244614310063	  -0.2427656476964019	  -0.0000022135850980	
  -0.2499999999999488	  -0.4957224306869052	   0.0525659977146221	  -0.0013508252861440	   0.0000268900085835	  -0.3200458740645690	  -0.0000029304843838	
  -0.2211443451094494	  -0.4957224306869052	   0.0524160776688788	  -0.0017266449305102	   0.0000289923264431	  -0.4071274427294098	  -0.0000037358158984	
  -0.1913417161824937	  -0.4957224306869052	   0.0523002850930049	  -0.0021395880835550	   0.0000304677704251	  -0.5025219269359339	  -0.0000046167861992	
  -0.1607197326515296	  -0.4957224306869052	   0.0522376192438038	  -0.0025775642960446	   0.0000308982695745	  -0.6033462119612893	  -0.0000055484086523	
  -0.1294095225512091	  -0.4957224306869052	   0.0522488745315397	  -0.0030207749412679	   0.0000298023173820	  -0.7049696687863107	  -0.0000064894363646	
  -0.0975451610080129	  -0.4957224306869052	   0.0523532606719126	  -0.0034411253314834	   0.0000267082191523	  -0.8009073119257897	  -0.0000073806735757	
  -0.0652630961099746	  -0.4957224306869052	   0.0525635957640812	  -0.0038032940687939	   0.0000212675344505	  -0.8830945617898798	  -0.0000081471119711	
  -0.0327015646150204	  -0.4957224306869052	   0.0528808008842910	  -0.0040679500702970	   0.0000133777277327	  -0.9426436473572241	  -0.0000087050499440	
   0.0000000000000512	  -0.4957224306869052	   0.0532891477815601	  -0.0041971849916151	   0.0000033034418013	  -0.9710828859288847	  -0.0000089740478748	
   0.0327015646151228	  -0.4957224306869052	   0.0537542705245655	  -0.0041615423699507	  -0.0000082615497494	  -0.9619256961698147	  -0.0000088921060690	
   0.0652630961100771	  -0.4957224306869052	   0.0542257357572899	  -0.0039471857653105	  -0.0000202216625175	  -0.9122418524796658	  -0.0000084306035998	
   0.0975451610081154	  -0.4957224306869052	   0.0546447520979640	  -0.0035611560348422	  -0.0000312329622485	  -0.8237825182183148	  -0.0000076048332285	
   0.1294095225513116	  -0.4957224306869052	   0.0549555731799888	  -0.0030327182453314	  -0.0000399522487499	  -0.7032374502712267	  -0.0000064762913768	
   0.1607197326516321	  -0.4957224306869052	   0.0551173300615586	  -0.0024097661480743	  -0.0000453254560077	  -0.5614107070971990	  -0.0000051451354538	
   0.1913417161825960	  -0.4957224306869052	   0.0551124501552645	  -0.0017508551473566	  -0.0000468126149656	  -0.4114511018263514	  -0.0000037340186418	
   0.2211443451095518	  -0.4957224306869052	   0.0549490201983958	  -0.0011150027426345	  -0.0000444811983508	  -0.2665989694977285	  -0.0000023674967734	
   0.2500000000000511	  -0.4957224306869052	   0.0546567984757704	  -0.0005521185729704	  -0.0000389363495455	  -0.1380732779757864	  -0.0000011523392049	
   0.2777851165098524	  -0.4957224306869052	   0.0542788765845547	  -0.0000964914044102	  -0.0000311336565818	  -0.0336211532204921	  -0.0000001636301079	
   0.3043807145044116	  -0.4957224306869052	   0.0538621003380937	   0.0002355657731618	  -0.0000221461664674	   0.0430200823363824	   0.0000005609996052	
   0.3296729075500857	  -0.4957224306869052	   0.0534490307079975	   0.0004442932876802	  -0.0000129687440076	   0.0918310778618956	   0.0000010192545042	
   0.3535533905933250	  -0.4957224306869052	   0.0530729324298607	   0.0005426651873138	  -0.0000044024212558	   0.1156759913469664	   0.0000012367946917	
   0.3759199037395399	  -0.4957224306869052	   0.0527558663817969	   0.0005517676990945	   0.0000029731704051	   0.1192808683545933	   0.0000012576558092	
   0.3966766701456687	  -0.4957224306869052	   0.0525090341290803	   0.0004965646237824	   0.0000087683459385	   0.1082762872637792	   0.0000011352212423	
   0.4157348061513237	  -0.4957224306869052	   0.0523342799216559	   0.0004025690139694	   0.0000127327830411	   0.0884349698586397	   0.0000009248801311	
   0.4330127018922706	  -0.4957224306869052	   0.0522259312254849	   0.0002933806726599	   0.0000147205227825	   0.0650869054801432	   0.0000006786109516	
   0.4484363707663953	  -0.4957224306869052	   0.0521726311780450	   0.0001887875243168	   0.0000146949264508	   0.0426695120984627	   0.0000004406684634	
   0.4619397662556946	  -0.4957224306869052	   0.0521592335875322	   0.0001031720624639	   0.0000127753646738	   0.0243424075366899	   0.0000002439756349	
   0.4734650647476040	  -0.4957224306869052	   0.0521690100196880	   0.0000442135527857	   0.0000093307100897	   0.0116996376126917	   0.0000001068816795	
   0.4829629131445853	  -0.4957224306869052	   0.0521863949063747	   0.0000121962316602	   0.0000050969858068	   0.0046324735523461	   0.0000000312689804	
   0.4903926402016665	  -0.4957224306869052	   0.0522001693682659	   0.0000006325862379	   0.0000012737039913	   0.0015715483833944	   0.0000000032985953	
   0.4957224306869564	  -0.4957224306869052	   0.0522061932648309	  -0.0000007159799634	  -0.0000007058674966	   0.0003450973551708	  -0.0000000003835723	
   0.4989294616193530	  -0.4957224306869052	   0.0522069420484617	  -0.0000001106888857	  -0.0000005096029444	  -0.0003491810720870	   0.0000000002862680	
   0.5000000000000513	  -0.4957224306869052	   0.0000000000000000	   0.0000000000000000	   0.0000000000000000	  -0.0006074338678163	   0.0000000000000000	
  -0.4999999999999493	  -0.4903926402016152	   0.0000000000000000	   0.0000000000000000	   0.0000000000000000	   0.0006956610854535	   0.0000000000000000	
  -0.4989294616192510	  -0.4903926402016152	   0.0539770105284498	  -0.0000001272545586	  -0.0000009547346364	   0.0010737264337097	  -0.0000000009443801	
  -0.4957224306868545	  -0.4903926402016152	   0.0539808339862004	   0.0000021518934816	  -0.0000054158800629	   0.0018937043162372	   0.0000000044287997	
  -0.4903926402015645	  -0.4903926402016152	   0.0539849035161171	   0.0000127186645119	  -0.0000136834016280	   0.0026903738908996	   0.0000000476441226	
  -0.4829629131444834	  -0.4903926402016152	   0.0539857352567931	   0.0000372355434709	  -0.0000210413198279	   0.0036171540202949	   0.0000001676638181	
  -0.4734650647475021	  -0.4903926402016152	   0.0539766196817126	   0.0000754842631440	  -0.0000225899603468	   0.0050879322216998	   0.0000003654870344	
  -0.4619397662555926	  -0.4903926402016152	   0.0539494553680711	   0.0001165817065014	  -0.0000167580046251	   0.0066407724674281	   0.0000005843750929	
  -0.4484363707662934	  -0.4903926402016152	   0.0538980508765486	   0.0001405608466453	  -0.0000045458852146	   0.0067114670524576	   0.0000007242613734	
  -0.4330127018921686	  -0.4903926402016152	   0.0538198006342163	   0.0001236710061145	   0.0000119374787777	   0.0030981386127148	   0.0000006681309530	
  -0.4157348061512219	  -0.4903926402016152	   0.0537156637102841	   0.0000437531843986	   0.0000303853174069	  -0.0064338465240771	   0.0000003064412678	
  -0.3966766701455668	  -0.4903926402016152	   0.0535891249515559	  -0.0001161402056220	   0.0000488882055250	  -0.0237266355687196	  -0.0000004459086897	
  -0.3759199037394380	  -0.4903926402016152	   0.0534447798803765	  -0.0003665321645435	   0.0000662514555954	  -0.0500231203168824	  -0.0000016430793584	
  -0.3535533905932230	  -0.4903926402016152	   0.0532871791255627	  -0.0007125770051110	   0.0000820687268580	  -0.0860089027290196	  -0.0000033116046080	
  -0.3296729075499837	  -0.4903926402016152	   0.0531203889934242	  -0.0011563630454922	   0.0000965244250620	  -0.1319869214213154	  -0.0000054603481463	
  -0.3043807145043096	  -0.4903926402016152	   0.0529484194112145	  -0.0016990373062288	   0.0001100392613230	  -0.1880744713666668	  -0.0000080909555300	
  -0.2777851165097505	  -0.4903926402016152	   0.0527763102363494	  -0.0023414845802680	   0.0001228723260669	  -0.2542702465314053	  -0.0000112030840930	
  -0.2499999999999493	  -0.4903926402016152	   0.0526114608182880	  -0.0030830069493101	   0.0001348170655613	  -0.3303433446026705	  -0.0000147902317266	
  -0.2211443451094499	  -0.4903926402016152	   0.0524647382866508	  -0.0039181771080018	   0.0001450301626074	  -0.4155360760767505	  -0.0000188260050982	
  -0.1913417161824942	  -0.4903926402016152	   0.0523509655251153	  -0.0048325837538278	   0.0001520100721560	  -0.5081661807053037	  -0.0000232434022945	
  -0.1607197326515301	  -0.4903926402016152	   0.0522884381302011	  -0.0057984504827136	   0.0001537038635151	  -0.6052188753186998	  -0.0000279123809756	
  -0.1294095225512097	  -0.4903926402016152	   0.0522971649073431	  -0.0067713044346357	   0.0001477554025480	  -0.7020645924561794	  -0.0000326217856417	
  -0.0975451610080134	  -0.4903926402016152	   0.0523956287340717	  -0.0076889978751924	   0.0001318980063390	  -0.7924213592238939	  -0.0000370728981394	
  -0.0652630961099751	  -0.4903926402016152	   0.0525961787950544	  -0.0084743921184412	   0.0001044906563922	  -0.8686894721515467	  -0.0000408913520172	
  -0.0327015646150209	  -0.4903926402016152	   0.0528997323234435	  -0.0090426258604335	   0.0000651278854785	  -0.9227143424488069	  -0.0000436624921822	
   0.0000000000000507	  -0.4903926402016152	   0.0532911921452331	  -0.0093129647019217	   0.0000151916220750	  -0.9469525253573605	  -0.0000449898720195	
   0.0327015646151223	  -0.4903926402016152	   0.0537375011566480	  -0.0092237480287125	  -0.0000418598341344	  -0.9358637174200793	  -0.0000445692932872	
   0.0652630961100765	  -0.4903926402016152	   0.0541900867614989	  -0.0087473073720653	  -0.0001006628943495	  -0.8872357981575867	  -0.0000422622873521	
   0.0975451610081148	  -0.4903926402016152	   0.0545922631930886	  -0.0079006110711459	  -0.0001546870923943	  -0.8030655398464426	  -0.0000381482799330	
   0.1294095225513110	  -0.4903926402016152	   0.0548902290507700	  -0.0067476423689916	  -0.0001974421329679	  -0.6896791957469780	  -0.0000325361624261	
   0.1607197326516315	  -0.4903926402016152	   0.0550445051411341	  -0.0053915231702147	  -0.0002238402983225	  -0.5569475092559562	  -0.0000259263112251	
   0.1913417161825955	  -0.4903926402016152	   0.0550380990745822	  -0.0039576637745621	  -0.0002312759649874	  -0.4167333530141826	  -0.0000189292594135	
   0.2211443451095513	  -0.4903926402016152	   0.0548788140644383	  -0.0025723433298125	  -0.0002200638255827	  -0.2809512489819846	  -0.0000121621473245	
   0.2500000000000506	  -0.4903926402016152	   0.0545954095735599	  -0.0013425995647035	  -0.0001931201568816	  -0.1597469025962419	  -0.0000061507525907	
   0.2777851165098519	  -0.4903926402016152	   0.0542295375643339	  -0.0003424234684009	  -0.0001550676730778	  -0.0602233534183049	  -0.0000012613369030	
   0.3043807145044111	  -0.4903926402016152	   0.0538264716160654	   0.0003924067850134	  -0.0001111273386171	   0.0140694970973525	   0.0000023260709296	
   0.3296729075500852	  -0.4903926402016152	   0.0534273174767411	   0.0008615634875240	  -0.0000661693024449	   0.0629321974838919	   0.0000046055522892	
   0.3535533905933245	  -0.4903926402016152	   0.0530641492669707	   0.0010922630938040	  -0.0000241476257386	   0.0888253388525363	   0.0000057075265735	
   0.3759199037395394	  -0.4903926402016152	   0.0527581444470909	   0.0011295075549228	   0.0000120521460612	   0.0959790453831867	   0.0000058511979305	
   0.3966766701456682	  -0.4903926402016152	   0.0525199029090730	   0.0010269658794854	   0.0000404805027408	   0.0895225879829786	   0.0000052998604935	
   0.4157348061513232	  -0.4903926402016152	   0.0523509052616865	   0.0008396350355082	   0.0000598989027051	   0.0747489173054649	   0.0000043248915347	
   0.4330127018922701	  -0.4903926402016152	   0.0522453329517253	   0.0006182694493243	   0.0000696350971492	   0.0565244482039280	   0.0000031786529156	
   0.4484363707663948	  -0.4903926402016152	   0.0521919334747669	   0.0004050278913054	   0.0000696223372421	   0.0388134946247990	   0.0000020732933711	
   0.4619397662556941	  -0.4903926402016152	   0.0521759997003192	   0.0002299082390155	   0.0000606541706693	   0.0242959950554010	   0.0000011629974859	
   0.4734650647476035	  -0.4903926402016152	   0.0521817059405065	   0.0001080897229080	   0.0000448165822983	   0.0141158277572571	   0.0000005296495050	
   0.4829629131445848	  -0.4903926402016152	   0.0521949308476983	   0.0000391175681400	   0.0000259491181955	   0.0078863401456974	   0.0000001760081244	
   0.4903926402016660	  -0.4903926402016152	   0.0522061941955940	   0.0000096632778063	   0.0000095480015849	   0.0041739678009996	   0.0000000346734492	