
title="result"
variables="x","y","P","u","v","omega","psi"
zone,j=49, i=49,f=point
  -0.2499999999999403	  -0.4330127018921849	   0.0000000000000000	   0.0000000000000000	   0.0000000000000000	   0.0000000000000000	   0.0000000000000000	
  -0.2489294616192421	  -0.4330127018921849	   0.0000000000000000	   0.0000000000000000	   0.0000000000000000	   0.0065985395121441	   0.0000000000000000	
  -0.2457224306868455	  -0.4330127018921849	   0.0000000000000000	   0.0000000000000000	   0.0000000000000000	   0.0132227743216020	   0.0000000000000000	
  -0.2403926402015555	  -0.4330127018921849	   0.0000000000000000	   0.0000000000000000	   0.0000000000000000	  -0.0140128230448120	   0.0000000000000000	
  -0.2329629131444745	  -0.4330127018921849	   0.0000000000000000	   0.0000000000000000	   0.0000000000000000	  -0.0818741964384015	   0.0000000000000000	
  -0.2234650647474932	  -0.4330127018921849	   0.0000000000000000	   0.0000000000000000	   0.0000000000000000	  -0.1861610718139830	   0.0000000000000000	
  -0.2119397662555837	  -0.4330127018921849	   0.0000000000000000	   0.0000000000000000	   0.0000000000000000	  -0.3191740242951124	   0.0000000000000000	
  -0.1984363707662845	  -0.4330127018921849	   0.0000000000000000	   0.0000000000000000	   0.0000000000000000	  -0.4728356871989423	   0.0000000000000000	
  -0.1830127018921597	  -0.4330127018921849	   0.0000000000000000	   0.0000000000000000	   0.0000000000000000	  -0.6425002129996435	   0.0000000000000000	
  -0.1657348061512129	  -0.4330127018921849	   0.0000000000000000	   0.0000000000000000	   0.0000000000000000	  -0.8274276926600025	   0.0000000000000000	
  -0.1466766701455579	  -0.4330127018921849	   0.0000000000000000	   0.0000000000000000	   0.0000000000000000	  -1.0295266881648708	   0.0000000000000000	
  -0.1259199037394290	  -0.4330127018921849	   0.0000000000000000	   0.0000000000000000	   0.0000000000000000	  -1.2506757364916232	   0.0000000000000000	
  -0.1035533905932141	  -0.4330127018921849	   0.0000000000000000	   0.0000000000000000	   0.0000000000000000	  -1.4899667387217874	   0.0000000000000000	
  -0.0796729075499748	  -0.4330127018921849	   0.0000000000000000	   0.0000000000000000	   0.0000000000000000	  -1.7416721716680099	   0.0000000000000000	
  -0.0543807145043007	  -0.4330127018921849	   0.0000000000000000	   0.0000000000000000	   0.0000000000000000	  -1.9942649255698486	   0.0000000000000000	
  -0.0277851165097415	  -0.4330127018921849	   0.0000000000000000	   0.0000000000000000	   0.0000000000000000	  -2.2303347771214237	   0.0000000000000000	
   0.0000000000000596	  -0.4330127018921849	   0.0000000000000000	   0.0000000000000000	   0.0000000000000000	  -2.4274831087887616	   0.0000000000000000	
   0.0288556548905591	  -0.4330127018921849	   0.0000000000000000	   0.0000000000000000	   0.0000000000000000	  -2.5604322188680499	   0.0000000000000000	
   0.0586582838175148	  -0.4330127018921849	   0.0000000000000000	   0.0000000000000000	   0.0000000000000000	  -2.6046573649758189	   0.0000000000000000	
   0.0892802673484788	  -0.4330127018921849	   0.0000000000000000	   0.0000000000000000	   0.0000000000000000	  -2.5413603800617675	   0.0000000000000000	
   0.1205904774487993	  -0.4330127018921849	   0.0000000000000000	   0.0000000000000000	   0.0000000000000000	  -2.3629257736059697	   0.0000000000000000	
   0.1524548389919955	  -0.4330127018921849	   0.0000000000000000	   0.0000000000000000	   0.0000000000000000	  -2.0772539660527767	   0.0000000000000000	
   0.1847369038900338	  -0.4330127018921849	   0.0000000000000000	   0.0000000000000000	   0.0000000000000000	  -1.7090544965506107	   0.0000000000000000	
   0.2172984353849881	  -0.4330127018921849	   0.0000000000000000	   0.0000000000000000	   0.0000000000000000	  -1.2967202682984078	   0.0000000000000000	
   0.2500000000000596	  -0.4330127018921849	   0.0000000000000000	   0.0000000000000000	   0.0000000000000000	  -0.8848801599535429	   0.0000000000000000	
   0.2827015646151312	  -0.4330127018921849	   0.0000000000000000	   0.0000000000000000	   0.0000000000000000	  -0.5147321856165591	   0.0000000000000000	
   0.3152630961100855	  -0.4330127018921849	   0.0000000000000000	   0.0000000000000000	   0.0000000000000000	  -0.2155071064158488	   0.0000000000000000	
   0.3475451610081238	  -0.4330127018921849	   0.0000000000000000	   0.0000000000000000	   0.0000000000000000	  -0.0001127665359963	   0.0000000000000000	
   0.3794095225513200	  -0.4330127018921849	   0.0000000000000000	   0.0000000000000000	   0.0000000000000000	   0.1340362083761150	   0.0000000000000000	
   0.4107197326516405	  -0.4330127018921849	   0.0000000000000000	   0.0000000000000000	   0.0000000000000000	   0.2002722309122222	   0.0000000000000000	
   0.4413417161826044	  -0.4330127018921849	   0.0000000000000000	   0.0000000000000000	   0.0000000000000000	   0.2166746627351543	   0.0000000000000000	
   0.4711443451095603	  -0.4330127018921849	   0.0000000000000000	   0.0000000000000000	   0.0000000000000000	   0.2010987000931471	   0.0000000000000000	
   0.5000000000000595	  -0.4330127018921849	   0.0000000000000000	   0.0000000000000000	   0.0000000000000000	   0.1683680476502996	   0.0000000000000000	
   0.5277851165098608	  -0.4330127018921849	   0.0000000000000000	   0.0000000000000000	   0.0000000000000000	   0.1293937797739085	   0.0000000000000000	
   0.5543807145044199	  -0.4330127018921849	   0.0000000000000000	   0.0000000000000000	   0.0000000000000000	   0.0914906296489207	   0.0000000000000000	
   0.5796729075500942	  -0.4330127018921849	   0.0000000000000000	   0.0000000000000000	   0.0000000000000000	   0.0590391756254089	   0.0000000000000000	
   0.6035533905933335	  -0.4330127018921849	   0.0000000000000000	   0.0000000000000000	   0.0000000000000000	   0.0341422791352204	   0.0000000000000000	
   0.6259199037395483	  -0.4330127018921849	   0.0000000000000000	   0.0000000000000000	   0.0000000000000000	   0.0171069476641159	   0.0000000000000000	
   0.6466766701456772	  -0.4330127018921849	   0.0000000000000000	   0.0000000000000000	   0.0000000000000000	   0.0069388179642534	   0.0000000000000000	
   0.6657348061513322	  -0.4330127018921849	   0.0000000000000000	   0.0000000000000000	   0.0000000000000000	   0.0018418731431682	   0.0000000000000000	
   0.6830127018922790	  -0.4330127018921849	   0.0000000000000000	   0.0000000000000000	   0.0000000000000000	  -0.0001643348983450	   0.0000000000000000	
   0.6984363707664037	  -0.4330127018921849	   0.0000000000000000	   0.0000000000000000	   0.0000000000000000	  -0.0007480130151330	   0.0000000000000000	
   0.7119397662557030	  -0.4330127018921849	   0.0000000000000000	   0.0000000000000000	   0.0000000000000000	  -0.0008868654490576	   0.0000000000000000	
   0.7234650647476124	  -0.4330127018921849	   0.0000000000000000	   0.0000000000000000	   0.0000000000000000	  -0.0009045301032022	   0.0000000000000000	
   0.7329629131445938	  -0.4330127018921849	   0.0000000000000000	   0.0000000000000000	   0.0000000000000000	  -0.0007109455939588	   0.0000000000000000	
   0.7403926402016749	  -0.4330127018921849	   0.0000000000000000	   0.0000000000000000	   0.0000000000000000	  -0.0003267458704057	   0.0000000000000000	
   0.7457224306869649	  -0.4330127018921849	   0.0000000000000000	   0.0000000000000000	   0.0000000000000000	   0.0000224523891023	   0.0000000000000000	
   0.7489294616193614	  -0.4330127018921849	   0.0000000000000000	   0.0000000000000000	   0.0000000000000000	   0.0000443869886673	   0.0000000000000000	
   0.7500000000000597	  -0.4330127018921849	   0.0000000000000000	   0.0000000000000000	   0.0000000000000000	   0.0000000000000000	   0.0000000000000000	
  -0.2505352691902896	  -0.4320855884587740	   0.0000000000000000	   0.0000000000000000	   0.0000000000000000	   0.0066317026397430	   0.0000000000000000	
  -0.2494647308095913	  -0.4320855884587740	   0.0587729102277370	   0.0000037841114005	  -0.0000021958271189	   0.0041252131567979	  -0.0000000129954526	
  -0.2462576998771948	  -0.4320855884587740	   0.0587060312053216	   0.0000065692113456	   0.0000012663323829	  -0.0000974038514058	  -0.0000000305046833	
  -0.2409279093919048	  -0.4320855884587740	   0.0585254279885766	  -0.0000165439170527	   0.0000028523616083	  -0.0253621682260736	  -0.0000000601893273	
  -0.2334981823348238	  -0.4320855884587740	   0.0582780722713939	  -0.0000770937966047	   0.0000043330646863	  -0.0901399880911710	  -0.0000001046147028	
  -0.2240003339378424	  -0.4320855884587740	   0.0580087783401103	  -0.0001721158472754	   0.0000049433153435	  -0.1911423654123529	  -0.0000001636076227	
  -0.2124750354459330	  -0.4320855884587740	   0.0577450661490720	  -0.0002942720840516	   0.0000048960040412	  -0.3218769477510005	  -0.0000002332095957	
  -0.1989716399566338	  -0.4320855884587740	   0.0574984191334189	  -0.0004360739727495	   0.0000048384891596	  -0.4738346226008360	  -0.0000003105583959	
  -0.1835479710825089	  -0.4320855884587740	   0.0572697594833079	  -0.0005929658566867	   0.0000046208368604	  -0.6424898823431504	  -0.0000003936380406	
  -0.1662700753415622	  -0.4320855884587740	   0.0570601638823465	  -0.0007640047985257	   0.0000045747935093	  -0.8263718830214134	  -0.0000004816972155	
  -0.1472119393359072	  -0.4320855884587740	   0.0568805130778067	  -0.0009508019543693	   0.0000045370967551	  -1.0272736496448425	  -0.0000005746235548	
  -0.1264551729297783	  -0.4320855884587740	   0.0567573702770158	  -0.0011549802553668	   0.0000045989716597	  -1.2465940082861204	  -0.0000006718219220	
  -0.1040886597835634	  -0.4320855884587740	   0.0567340765559511	  -0.0013757152974469	   0.0000045641905619	  -1.4834944961021206	  -0.0000007716635930	
  -0.0802081767403241	  -0.4320855884587740	   0.0568669731993664	  -0.0016077382149418	   0.0000044463780544	  -1.7321208810678552	  -0.0000008707817573	
  -0.0549159836946500	  -0.4320855884587740	   0.0572189079546453	  -0.0018404972895398	   0.0000040793889883	  -1.9812315946109536	  -0.0000009641380612	
  -0.0283203857000908	  -0.4320855884587740	   0.0578494955023187	  -0.0020579967244872	   0.0000034828583306	  -2.2135768523512156	  -0.0000010447560980	
  -0.0005352691902897	  -0.4320855884587740	   0.0588025735856636	  -0.0022396997522906	   0.0000025500627740	  -2.4072765803894423	  -0.0000011042262442	
   0.0283203857002098	  -0.4320855884587740	   0.0600905884810125	  -0.0023624013214534	   0.0000013540484364	  -2.5374973229113680	  -0.0000011333084316	
   0.0581230146271655	  -0.4320855884587740	   0.0616794728521809	  -0.0024036222758742	  -0.0000001090330275	  -2.5803957317829429	  -0.0000011236768488	
   0.0887449981581296	  -0.4320855884587740	   0.0634790157102158	  -0.0023460919569425	  -0.0000016605673785	  -2.5176168101452547	  -0.0000010698089166	
   0.1200552082584500	  -0.4320855884587740	   0.0653459710546220	  -0.0021827881951610	  -0.0000031816748899	  -2.3418867582940579	  -0.0000009712950854	
   0.1519195698016463	  -0.4320855884587740	   0.0671039403859987	  -0.0019208376295233	  -0.0000044192320882	  -2.0608940874672697	  -0.0000008340285643	
   0.1842016346996845	  -0.4320855884587740	   0.0685789345283230	  -0.0015827684139760	  -0.0000052393748072	  -1.6987918032881071	  -0.0000006702194213	
   0.2167631661946388	  -0.4320855884587740	   0.0696406199421510	  -0.0012036378653022	  -0.0000054824877430	  -1.2929252379536778	  -0.0000004961909532	
   0.2494647308097104	  -0.4320855884587740	   0.0702344290823220	  -0.0008243273452199	  -0.0000051880326330	  -0.8868923181079851	  -0.0000003290579477	
   0.2821662954247820	  -0.4320855884587740	   0.0703906439119900	  -0.0004826846195684	  -0.0000044206501399	  -0.5209812827433259	  -0.0000001828837469	
   0.3147278269197362	  -0.4320855884587740	   0.0702069421052843	  -0.0002057512696711	  -0.0000034061706103	  -0.2240897874214032	  -0.0000000663575070	
   0.3470098918177745	  -0.4320855884587740	   0.0698128968450522	  -0.0000056592301379	  -0.0000023093618540	  -0.0092024391011421	   0.0000000177838947	
   0.3788742533609707	  -0.4320855884587740	   0.0693328212174657	   0.0001196548800857	  -0.0000013334011623	   0.1257339000935862	   0.0000000713370485	
   0.4101844634612912	  -0.4320855884587740	   0.0688606263457964	   0.0001822289837648	  -0.0000005402406807	   0.1934995489171778	   0.0000000988176175	
   0.4408064469922551	  -0.4320855884587740	   0.0684519071158600	   0.0001985575564769	   0.0000000086350526	   0.2116147991218965	   0.0000001057516246	
   0.4706090759192110	  -0.4320855884587740	   0.0681292671848448	   0.0001850652417356	   0.0000003642624390	   0.1976513858555274	   0.0000000979133908	
   0.4994647308097103	  -0.4320855884587740	   0.0678934735129308	   0.0001554350849190	   0.0000005389735638	   0.1662329598501217	   0.0000000808096609	
   0.5272498473195115	  -0.4320855884587740	   0.0677339381851465	   0.0001198057355982	   0.0000006043585129	   0.1282818634649001	   0.0000000594758401	
   0.5538454453140708	  -0.4320855884587740	   0.0676358120033512	   0.0000849763804051	   0.0000005713429024	   0.0910850038729165	   0.0000000380281243	
   0.5791376383597449	  -0.4320855884587740	   0.0675836249468247	   0.0000550580426007	   0.0000004971867814	   0.0591086637059873	   0.0000000194438530	
   0.6030181214029842	  -0.4320855884587740	   0.0675629389178826	   0.0000320181268374	   0.0000003794279282	   0.0344435378893150	   0.0000000053742011	
   0.6253846345491990	  -0.4320855884587740	   0.0675612169098207	   0.0000161917671052	   0.0000002713356856	   0.0174947161955496	  -0.0000000036698821	
   0.6461414009553279	  -0.4320855884587740	   0.0675685568870741	   0.0000066751209558	   0.0000001574449421	   0.0072637331888866	  -0.0000000080952214	
   0.6651995369609829	  -0.4320855884587740	   0.0675782562718316	   0.0000018599179543	   0.0000000911634210	   0.0020792893125952	  -0.0000000088739151	
   0.6824774327019297	  -0.4320855884587740	   0.0675868533623931	  -0.0000000805080887	   0.0000000307000265	  -0.0000455803030784	  -0.0000000072879621	
   0.6979011015760545	  -0.4320855884587740	   0.0675935233590055	  -0.0000006500097227	   0.0000000245445547	  -0.0006592840290349	  -0.0000000046703866	
   0.7114044970653538	  -0.4320855884587740	   0.0675987827958190	  -0.0000007845443014	   0.0000000004794337	  -0.0008120594012945	  -0.0000000021541250	
   0.7229297955572632	  -0.4320855884587740	   0.0676031778834148	  -0.0000007763282388	   0.0000000087893094	  -0.0007619273693708	  -0.0000000004721065	
   0.7324276439542445	  -0.4320855884587740	   0.0676063715259542	  -0.0000006087615396	  -0.0000000303139415	  -0.0005938821665404	   0.0000000002444691	
   0.7398573710113256	  -0.4320855884587740	   0.0676076428963556	  -0.0000002793315655	  -0.0000000156985608	  -0.0002299849044172	   0.0000000002608432	
   0.7451871614966156	  -0.4320855884587740	   0.0676070840361483	  -0.0000000294606426	  -0.0000000822665475	  -0.0000760440538138	   0.0000000001187563	
   0.7483941924290122	  -0.4320855884587740	   0.0676063898552139	   0.0000000236741020	   0.0000000700745774	  -0.0000064355194222	   0.0000000000228660	
   0.7494647308097104	  -0.4320855884587740	   0.0000000000000000	   0.0000000000000000	   0.0000000000000000	   0.0001461777220842	   0.0000000000000000	
  -0.2521387846564882	  -0.4293082182005963	   0.0000000000000000	   0.0000000000000000	   0.0000000000000000	   0.0132942185015076	   0.0000000000000000	
  -0.2510682462757899	  -0.4293082182005963	   0.0588400512795892	   0.0000023631575487	  -0.0000061828973330	  -0.0001234643566908	  -0.0000000305096876	
  -0.2478612153433934	  -0.4293082182005963	   0.0587727360256930	  -0.0000132076054338	   0.0000083005375277	  -0.0257620402919890	  -0.0000001060294933	
  -0.2425314248581034	  -0.4293082182005963	   0.0586210587276876	  -0.0001031229713491	   0.0000426000821192	  -0.0574617754672639	  -0.0000003269218249	
  -0.2351016978010224	  -0.4293082182005963	   0.0583868894837074	  -0.0003239642121671	   0.0000650515562321	  -0.1152118260803183	  -0.0000008079684546	
  -0.2256038494040411	  -0.4293082182005963	   0.0581166441283229	  -0.0006841414541314	   0.0000757615094299	  -0.2076351406868625	  -0.0000015448872345	
  -0.2140785509121316	  -0.4293082182005963	   0.0578457713412811	  -0.0011583086432874	   0.0000777985976077	  -0.3308863465790812	  -0.0000024872983506	
  -0.2005751554228324	  -0.4293082182005963	   0.0575904258698183	  -0.0017164419772875	   0.0000763582589358	  -0.4778333194132775	  -0.0000035760772192	
  -0.1851514865487076	  -0.4293082182005963	   0.0573544372338377	  -0.0023378915899211	   0.0000738431917953	  -0.6428472865780267	  -0.0000047759209101	
  -0.1678735908077608	  -0.4293082182005963	   0.0571392636427629	  -0.0030162827894606	   0.0000724383971033	  -0.8237352944330318	  -0.0000060731897362	
  -0.1488154548021058	  -0.4293082182005963	   0.0569548381623029	  -0.0037557693765298	   0.0000721396502068	  -1.0208325540008483	  -0.0000074751631221	
  -0.1280586883959769	  -0.4293082182005963	   0.0568258418466917	  -0.0045617369391914	   0.0000725722271406	  -1.2349838681652787	  -0.0000089867578588	
  -0.1056921752497620	  -0.4293082182005963	   0.0567936643496174	  -0.0054306547180315	   0.0000722759394570	  -1.4647447801548485	  -0.0000105981827056	
  -0.0818116922065227	  -0.4293082182005963	   0.0569130244892787	  -0.0063422117965165	   0.0000700879059646	  -1.7044924992862664	  -0.0000122676573682	
  -0.0565194991608486	  -0.4293082182005963	   0.0572458229729793	  -0.0072554886635574	   0.0000646117688918	  -1.9432344509615096	  -0.0000139190800602	
  -0.0299239011662894	  -0.4293082182005963	   0.0578515572643356	  -0.0081085239227106	   0.0000550353334066	  -2.1646630292954563	  -0.0000154380233802	
  -0.0021387846564883	  -0.4293082182005963	   0.0587749950750610	  -0.0088216671278874	   0.0000406970613127	  -2.3479689342935894	  -0.0000166802436991	
   0.0267168702340111	  -0.4293082182005963	   0.0600307030679896	  -0.0093051354946754	   0.0000217845159389	  -2.4700134092580108	  -0.0000174828097041	
   0.0565194991609669	  -0.4293082182005963	   0.0615879228891517	  -0.0094719236262817	  -0.0000008960665634	  -2.5086084319801270	  -0.0000176904078036	
   0.0871414826919309	  -0.4293082182005963	   0.0633605762969037	  -0.0092551443342077	  -0.0000254089479699	  -2.4470634614551066	  -0.0000171858882554	
   0.1184516927922514	  -0.4293082182005963	   0.0652096097097027	  -0.0086270680446429	  -0.0000491466771330	  -2.2788621510136289	  -0.0000159274233705	
   0.1503160543354476	  -0.4293082182005963	   0.0669618023452237	  -0.0076141624970859	  -0.0000689170070755	  -2.0114241237933532	  -0.0000139737206014	
   0.1825981192334859	  -0.4293082182005963	   0.0684442861376379	  -0.0063018829335342	  -0.0000819281646114	  -1.6670695283282986	  -0.0000114921109391	
   0.2151596507284401	  -0.4293082182005963	   0.0695252282918147	  -0.0048242392065679	  -0.0000863135096560	  -1.2803526218625951	  -0.0000087347208381	
   0.2478612153435117	  -0.4293082182005963	   0.0701462011901695	  -0.0033385583484075	  -0.0000819768580577	  -0.8915961278379387	  -0.0000059906339832	
   0.2805627799585834	  -0.4293082182005963	   0.0703323564155899	  -0.0019920621325578	  -0.0000704490545705	  -0.5385808884031656	  -0.0000035228483504	
   0.3131243114535376	  -0.4293082182005963	   0.0701764553005263	  -0.0008917900655910	  -0.0000546048036522	  -0.2489217556462323	  -0.0000015170161795	
   0.3454063763515759	  -0.4293082182005963	   0.0698046271644811	  -0.0000881979880456	  -0.0000375587738692	  -0.0359508254836726	  -0.0000000552685735	
   0.3772707378947721	  -0.4293082182005963	   0.0693397553189188	   0.0004232895844652	  -0.0000219874911119	   0.1010791782483298	   0.0000008755607602	
   0.4085809479950926	  -0.4293082182005963	   0.0688761075444170	   0.0006868169438647	  -0.0000094295602603	   0.1731449725351976	   0.0000013553573763	
   0.4392029315260565	  -0.4293082182005963	   0.0684707130309847	   0.0007652870997461	  -0.0000004404899877	   0.1963012776349387	   0.0000014941170155	
   0.4690055604530123	  -0.4293082182005963	   0.0681479200468274	   0.0007225721381366	   0.0000052808098898	   0.1870601933842036	   0.0000014042762426	
   0.4978612153435117	  -0.4293082182005963	   0.0679100189246881	   0.0006127632920156	   0.0000083158183890	   0.1596157821859875	   0.0000011832372789	
   0.5256463318533129	  -0.4293082182005963	   0.0677475055738528	   0.0004764156369013	   0.0000093930086316	   0.1247029093298850	   0.0000009077678648	
   0.5522419298478721	  -0.4293082182005963	   0.0676462091547110	   0.0003410776209776	   0.0000090666210256	   0.0897101568566088	   0.0000006326907865	
   0.5775341228935462	  -0.4293082182005963	   0.0675910555670051	   0.0002235553939321	   0.0000078678502555	   0.0591464038034401	   0.0000003935462970	
   0.6014146059367855	  -0.4293082182005963	   0.0675678610746622	   0.0001321350121995	   0.0000061616105475	   0.0352783943634830	   0.0000002085798200	
   0.6237811190830004	  -0.4293082182005963	   0.0675642428228967	   0.0000685259368346	   0.0000043529624482	   0.0185765843227265	   0.0000000824904600	
   0.6445378854891293	  -0.4293082182005963	   0.0675703756380380	   0.0000295737050175	   0.0000026964126223	   0.0082676926476764	   0.0000000093174185	
   0.6635960214947842	  -0.4293082182005963	   0.0675794955253787	   0.0000092461383656	   0.0000014528791442	   0.0027859749915864	  -0.0000000230226036	
   0.6808739172357311	  -0.4293082182005963	   0.0675879542869083	   0.0000006419695551	   0.0000006505241494	   0.0003997576317044	  -0.0000000293145220	
   0.6962975861098558	  -0.4293082182005963	   0.0675946170991472	  -0.0000020840771280	   0.0000002796374419	  -0.0004032128023595	  -0.0000000228675276	
   0.7098009815991552	  -0.4293082182005963	   0.0675996901337933	  -0.0000026529297746	   0.0000001023939969	  -0.0005415647949132	  -0.0000000135520546	
   0.7213262800910646	  -0.4293082182005963	   0.0676035530860219	  -0.0000025228613258	  -0.0000000138616693	  -0.0004654491094013	  -0.0000000062158815	
   0.7308241284880459	  -0.4293082182005963	   0.0676060280455533	  -0.0000019073096460	  -0.0000002284521984	  -0.0002692763791975	  -0.0000000020679665	
   0.7382538555451270	  -0.4293082182005963	   0.0676068570442551	  -0.0000009441476017	  -0.0000003248079334	  -0.0001260112073017	  -0.0000000001347713	
   0.7435836460304169	  -0.4293082182005963	   0.0676064737336113	  -0.0000002413305128	  -0.0000002142084661	  -0.0000385862477329	   0.0000000002437167	
   0.7467906769628135	  -0.4293082182005963	   0.0676059894361923	  -0.0000000327520400	  -0.0000000735061816	  -0.0000640107844843	   0.0000000001061347	
   0.7478612153435118	  -0.4293082182005963	   0.0000000000000000	   0.0000000000000000	   0.0000000000000000	  -0.0000631022810296	   0.0000000000000000	
  -0.2548036798991339	  -0.4246924842434870	   0.0000000000000000	   0.0000000000000000	   0.0000000000000000	  -0.0146875497477662	   0.0000000000000000	
  -0.2537331415184356	  -0.4246924842434870	   0.0590240231380793	  -0.0000104052981152	   0.0000139907658655	  -0.0263993186374310	  -0.0000000604552030	
  -0.2505261105860390	  -0.4246924842434870	   0.0589248948185323	  -0.0000888030693109	   0.0000715992058798	  -0.0587879640356475	  -0.0000003305902281	
  -0.2451963201007491	  -0.4246924842434870	   0.0587710115857536	  -0.0003192910317928	   0.0001854045721718	  -0.1020036433240764	  -0.0000011915156616	
  -0.2377665930436680	  -0.4246924842434870	   0.0585525491178158	  -0.0007845678662191	   0.0002977345234537	  -0.1571448355229439	  -0.0000031896470130	
  -0.2282687446466867	  -0.4246924842434870	   0.0582866414975327	  -0.0015355063824873	   0.0003617156593680	  -0.2381928125422637	  -0.0000065084037954	
  -0.2167434461547772	  -0.4246924842434870	   0.0580085418334846	  -0.0025499509596545	   0.0003830773236274	  -0.3493468587356258	  -0.0000109538337730	
  -0.2032400506654780	  -0.4246924842434870	   0.0577416451231878	  -0.0037686948015929	   0.0003803339075784	  -0.4869476937747217	  -0.0000162294016182	
  -0.1878163817913532	  -0.4246924842434870	   0.0574942520039825	  -0.0051409541402041	   0.0003701607551351	  -0.6452099026355922	  -0.0000221133249462	
  -0.1705384860504065	  -0.4246924842434870	   0.0572696678700149	  -0.0066440336565338	   0.0003622547686635	  -0.8205277567299631	  -0.0000285147672176	
  -0.1514803500447514	  -0.4246924842434870	   0.0570765485251703	  -0.0082792372833483	   0.0003599398786979	  -1.0113648615225428	  -0.0000354481978717	
  -0.1307235836386225	  -0.4246924842434870	   0.0569371794301239	  -0.0100540479095918	   0.0003605666349504	  -1.2171574756886470	  -0.0000429486630387	
  -0.1083570704924076	  -0.4246924842434870	   0.0568897602593887	  -0.0119592125225755	   0.0003586161832675	  -1.4356595857227150	  -0.0000509782219870	
  -0.0844765874491683	  -0.4246924842434870	   0.0569865965164066	  -0.0139511876605572	   0.0003473200177840	  -1.6612044553349703	  -0.0000593523297305	
  -0.0591843944034942	  -0.4246924842434870	   0.0572878960185177	  -0.0159423071981450	   0.0003206660847628	  -1.8833586339098265	  -0.0000677031239967	
  -0.0325887964089351	  -0.4246924842434870	   0.0578530977858815	  -0.0178001034785934	   0.0002738019038397	  -2.0870405297399528	  -0.0000754743494161	
  -0.0048036798991339	  -0.4246924842434870	   0.0587283960651867	  -0.0193542627705504	   0.0002041136815715	  -2.2533153498373251	  -0.0000819499869015	
   0.0240519749913655	  -0.4246924842434870	   0.0599319353013438	  -0.0204135364594529	   0.0001118434843403	  -2.3615593001865709	  -0.0000863219933591	
   0.0538546039183212	  -0.4246924842434870	   0.0614382370635859	  -0.0207927899494077	   0.0000013261939233	  -2.3924229662187857	  -0.0000878061650436	
   0.0844765874492853	  -0.4246924842434870	   0.0631679343350266	  -0.0203496651549713	  -0.0001186892972781	  -2.3318029624333230	  -0.0000857990280055	
   0.1157867975496058	  -0.4246924842434870	   0.0649885392788298	  -0.0190237046316390	  -0.0002353301630450	  -2.1746801111285539	  -0.0000800491190396	
   0.1476511590928020	  -0.4246924842434870	   0.0667318299293377	  -0.0168678140051643	  -0.0003336579653433	  -1.9281019522981455	  -0.0000707925948905	
   0.1799332239908403	  -0.4246924842434870	   0.0682264984229562	  -0.0140583076082839	  -0.0003997466002935	  -1.6117844422238279	  -0.0000587959752687	
   0.2124947554857945	  -0.4246924842434870	   0.0693382536256116	  -0.0108747045880111	  -0.0004245626139942	  -1.2558372612490873	  -0.0000452633640417	
   0.2451963201008661	  -0.4246924842434870	   0.0700024615127333	  -0.0076486519691444	  -0.0004067438680741	  -0.8954707740948235	  -0.0000316112458046	
   0.2778978847159377	  -0.4246924842434870	   0.0702362580001501	  -0.0046956853590982	  -0.0003533169029562	  -0.5642024105354543	  -0.0000191712604144	
   0.3104594162108920	  -0.4246924842434870	   0.0701246977227906	  -0.0022516447916543	  -0.0002774304252322	  -0.2874449047478751	  -0.0000089221527119	
   0.3427414811089302	  -0.4246924842434870	   0.0697885810557711	  -0.0004359770038995	  -0.0001943132986115	  -0.0787086161129525	  -0.0000013429094424	
   0.3746058426521265	  -0.4246924842434870	   0.0693484824637292	   0.0007489367011555	  -0.0001169785035846	   0.0607627888837536	   0.0000035769374772	
   0.4059160527524469	  -0.4246924842434870	   0.0688991704958211	   0.0013881812717740	  -0.0000536723894361	   0.1392322584188324	   0.0000062049525079	
   0.4365380362834109	  -0.4246924842434870	   0.0684997786030090	   0.0016119277485434	  -0.0000074317627969	   0.1702725956924811	   0.0000070869713369	
   0.4663406652103667	  -0.4246924842434870	   0.0681773455593221	   0.0015569379333192	   0.0000225517626893	   0.1686957388789909	   0.0000067924163840	
   0.4951963201008660	  -0.4246924842434870	   0.0679364981059386	   0.0013421548232421	   0.0000391169970652	   0.1477987915540891	   0.0000058182996309	
   0.5229814366106673	  -0.4246924842434870	   0.0677694954843910	   0.0010585850929620	   0.0000455492735366	   0.1180303671508577	   0.0000045504102200	
   0.5495770346052264	  -0.4246924842434870	   0.0676632540709286	   0.0007692865120526	   0.0000448383873144	   0.0867895481888607	   0.0000032612367035	
   0.5748692276509005	  -0.4246924842434870	   0.0676034112933771	   0.0005133801688757	   0.0000394392864884	   0.0587397356862113	   0.0000021236717399	
   0.5987497106941398	  -0.4246924842434870	   0.0675761839896905	   0.0003109785994120	   0.0000314336448028	   0.0363148982713052	   0.0000012282039408	
   0.6211162238403548	  -0.4246924842434870	   0.0675694835801332	   0.0001673212967378	   0.0000226068475469	   0.0202096935300040	   0.0000005996034802	
   0.6418729902464836	  -0.4246924842434870	   0.0675735682641835	   0.0000769206529620	   0.0000144585560722	   0.0098797155950152	   0.0000002140929977	
   0.6609311262521387	  -0.4246924842434870	   0.0675816103776038	   0.0000276572945693	   0.0000080408205751	   0.0040554474967947	   0.0000000177458548	
   0.6782090219930855	  -0.4246924842434870	   0.0675896539641175	   0.0000053534395911	   0.0000037935564485	   0.0012432971389873	  -0.0000000543371241	
   0.6936326908672102	  -0.4246924842434870	   0.0675961467399523	  -0.0000025259314913	   0.0000015008467408	   0.0001443466731821	  -0.0000000611506658	
   0.7071360863565095	  -0.4246924842434870	   0.0676008954234976	  -0.0000043047390118	   0.0000004380950780	  -0.0001375259062453	  -0.0000000445177483	
   0.7186613848484189	  -0.4246924842434870	   0.0676041220813494	  -0.0000040719184582	  -0.0000002075183646	  -0.0000957826236513	  -0.0000000261404608	
   0.7281592332454002	  -0.4246924842434870	   0.0676059387467350	  -0.0000030050250170	  -0.0000008070466995	   0.0000026552666647	  -0.0000000126677094	
   0.7355889603024813	  -0.4246924842434870	   0.0676064894068334	  -0.0000016563826544	  -0.0000011397271060	   0.0000190434532177	  -0.0000000043333426	