
title="result"
variables="x","y","P","u","v","omega","psi"
zone,j=49, i=49,f=point
  -0.6545084971874343	  -0.4755282581475896	   0.0000000000000000	   0.0000000000000000	   0.0000000000000000	   0.0000000000000000	   0.0000000000000000	
  -0.6534379588067361	  -0.4755282581475896	   0.0000000000000000	   0.0000000000000000	   0.0000000000000000	   0.0000550313654259	   0.0000000000000000	
  -0.6502309278743396	  -0.4755282581475896	   0.0000000000000000	   0.0000000000000000	   0.0000000000000000	   0.0006246197166229	   0.0000000000000000	
  -0.6449011373890495	  -0.4755282581475896	   0.0000000000000000	   0.0000000000000000	   0.0000000000000000	   0.0010164268188767	   0.0000000000000000	
  -0.6374714103319685	  -0.4755282581475896	   0.0000000000000000	   0.0000000000000000	   0.0000000000000000	   0.0007439379174365	   0.0000000000000000	
  -0.6279735619349872	  -0.4755282581475896	   0.0000000000000000	   0.0000000000000000	   0.0000000000000000	   0.0000921908029313	   0.0000000000000000	
  -0.6164482634430777	  -0.4755282581475896	   0.0000000000000000	   0.0000000000000000	   0.0000000000000000	  -0.0003815686480862	   0.0000000000000000	
  -0.6029448679537786	  -0.4755282581475896	   0.0000000000000000	   0.0000000000000000	   0.0000000000000000	  -0.0001500237758918	   0.0000000000000000	
  -0.5875211990796537	  -0.4755282581475896	   0.0000000000000000	   0.0000000000000000	   0.0000000000000000	   0.0010845641840773	   0.0000000000000000	
  -0.5702433033387070	  -0.4755282581475896	   0.0000000000000000	   0.0000000000000000	   0.0000000000000000	   0.0032604360763212	   0.0000000000000000	
  -0.5511851673330519	  -0.4755282581475896	   0.0000000000000000	   0.0000000000000000	   0.0000000000000000	   0.0059509000527918	   0.0000000000000000	
  -0.5304284009269230	  -0.4755282581475896	   0.0000000000000000	   0.0000000000000000	   0.0000000000000000	   0.0084091752003481	   0.0000000000000000	
  -0.5080618877807082	  -0.4755282581475896	   0.0000000000000000	   0.0000000000000000	   0.0000000000000000	   0.0096947006184698	   0.0000000000000000	
  -0.4841814047374688	  -0.4755282581475896	   0.0000000000000000	   0.0000000000000000	   0.0000000000000000	   0.0088007076919370	   0.0000000000000000	
  -0.4588892116917948	  -0.4755282581475896	   0.0000000000000000	   0.0000000000000000	   0.0000000000000000	   0.0047919844501939	   0.0000000000000000	
  -0.4322936136972355	  -0.4755282581475896	   0.0000000000000000	   0.0000000000000000	   0.0000000000000000	  -0.0030978913616931	   0.0000000000000000	
  -0.4045084971874344	  -0.4755282581475896	   0.0000000000000000	   0.0000000000000000	   0.0000000000000000	  -0.0153845667861847	   0.0000000000000000	
  -0.3756528422969350	  -0.4755282581475896	   0.0000000000000000	   0.0000000000000000	   0.0000000000000000	  -0.0322918275827238	   0.0000000000000000	
  -0.3458502133699792	  -0.4755282581475896	   0.0000000000000000	   0.0000000000000000	   0.0000000000000000	  -0.0537302754204984	   0.0000000000000000	
  -0.3152282298390152	  -0.4755282581475896	   0.0000000000000000	   0.0000000000000000	   0.0000000000000000	  -0.0793137258858427	   0.0000000000000000	
  -0.2839180197386947	  -0.4755282581475896	   0.0000000000000000	   0.0000000000000000	   0.0000000000000000	  -0.1083885856679925	   0.0000000000000000	
  -0.2520536581954985	  -0.4755282581475896	   0.0000000000000000	   0.0000000000000000	   0.0000000000000000	  -0.1400782296294690	   0.0000000000000000	
  -0.2197715932974602	  -0.4755282581475896	   0.0000000000000000	   0.0000000000000000	   0.0000000000000000	  -0.1733141920109132	   0.0000000000000000	
  -0.1872100618025060	  -0.4755282581475896	   0.0000000000000000	   0.0000000000000000	   0.0000000000000000	  -0.2068543109227466	   0.0000000000000000	
  -0.1545084971874344	  -0.4755282581475896	   0.0000000000000000	   0.0000000000000000	   0.0000000000000000	  -0.2392740949616672	   0.0000000000000000	
  -0.1218069325723628	  -0.4755282581475896	   0.0000000000000000	   0.0000000000000000	   0.0000000000000000	  -0.2689547433210776	   0.0000000000000000	
  -0.0892454010774085	  -0.4755282581475896	   0.0000000000000000	   0.0000000000000000	   0.0000000000000000	  -0.2940946610282617	   0.0000000000000000	
  -0.0569633361793702	  -0.4755282581475896	   0.0000000000000000	   0.0000000000000000	   0.0000000000000000	  -0.3127991991863702	   0.0000000000000000	
  -0.0250989746361740	  -0.4755282581475896	   0.0000000000000000	   0.0000000000000000	   0.0000000000000000	  -0.3232718035813447	   0.0000000000000000	
   0.0062112354641465	  -0.4755282581475896	   0.0000000000000000	   0.0000000000000000	   0.0000000000000000	  -0.3240950402197683	   0.0000000000000000	
   0.0368332189951104	  -0.4755282581475896	   0.0000000000000000	   0.0000000000000000	   0.0000000000000000	  -0.3145254133965610	   0.0000000000000000	
   0.0666358479220662	  -0.4755282581475896	   0.0000000000000000	   0.0000000000000000	   0.0000000000000000	  -0.2947134892897879	   0.0000000000000000	
   0.0954915028125655	  -0.4755282581475896	   0.0000000000000000	   0.0000000000000000	   0.0000000000000000	  -0.2657741204168060	   0.0000000000000000	
   0.1232766193223668	  -0.4755282581475896	   0.0000000000000000	   0.0000000000000000	   0.0000000000000000	  -0.2296897601866421	   0.0000000000000000	
   0.1498722173169260	  -0.4755282581475896	   0.0000000000000000	   0.0000000000000000	   0.0000000000000000	  -0.1890720243895676	   0.0000000000000000	
   0.1751644103626001	  -0.4755282581475896	   0.0000000000000000	   0.0000000000000000	   0.0000000000000000	  -0.1468411269289114	   0.0000000000000000	
   0.1990448934058394	  -0.4755282581475896	   0.0000000000000000	   0.0000000000000000	   0.0000000000000000	  -0.1058846108556023	   0.0000000000000000	
   0.2214114065520543	  -0.4755282581475896	   0.0000000000000000	   0.0000000000000000	   0.0000000000000000	  -0.0687517550906723	   0.0000000000000000	
   0.2421681729581831	  -0.4755282581475896	   0.0000000000000000	   0.0000000000000000	   0.0000000000000000	  -0.0374194253533065	   0.0000000000000000	
   0.2612263089638381	  -0.4755282581475896	   0.0000000000000000	   0.0000000000000000	   0.0000000000000000	  -0.0131474861866179	   0.0000000000000000	
   0.2785042047047850	  -0.4755282581475896	   0.0000000000000000	   0.0000000000000000	   0.0000000000000000	   0.0035791546790162	   0.0000000000000000	
   0.2939278735789097	  -0.4755282581475896	   0.0000000000000000	   0.0000000000000000	   0.0000000000000000	   0.0130347037273545	   0.0000000000000000	
   0.3074312690682091	  -0.4755282581475896	   0.0000000000000000	   0.0000000000000000	   0.0000000000000000	   0.0161849900570961	   0.0000000000000000	
   0.3189565675601185	  -0.4755282581475896	   0.0000000000000000	   0.0000000000000000	   0.0000000000000000	   0.0145725337712941	   0.0000000000000000	
   0.3284544159570998	  -0.4755282581475896	   0.0000000000000000	   0.0000000000000000	   0.0000000000000000	   0.0101675474740784	   0.0000000000000000	
   0.3358841430141809	  -0.4755282581475896	   0.0000000000000000	   0.0000000000000000	   0.0000000000000000	   0.0051025999879803	   0.0000000000000000	
   0.3412139334994708	  -0.4755282581475896	   0.0000000000000000	   0.0000000000000000	   0.0000000000000000	   0.0013443387334807	   0.0000000000000000	
   0.3444209644318674	  -0.4755282581475896	   0.0000000000000000	   0.0000000000000000	   0.0000000000000000	  -0.0000145863975402	   0.0000000000000000	
   0.3454915028125657	  -0.4755282581475896	   0.0000000000000000	   0.0000000000000000	   0.0000000000000000	   0.0000000000000000	   0.0000000000000000	
  -0.6541776826346680	  -0.4745101156446824	   0.0000000000000000	   0.0000000000000000	   0.0000000000000000	   0.0001028969967900	   0.0000000000000000	
  -0.6531071442539698	  -0.4745101156446824	   0.0121617070721107	   0.0000000658481319	  -0.0000000673544529	   0.0000677528225286	  -0.0000000001192011	
  -0.6499001133215732	  -0.4745101156446824	   0.0121621466742759	   0.0000005172015675	  -0.0000000504570754	   0.0003498525836191	  -0.0000000004796239	
  -0.6445703228362832	  -0.4745101156446824	   0.0121586509923839	   0.0000008925599702	   0.0000000059671480	   0.0007385603075269	  -0.0000000009020771	
  -0.6371405957792022	  -0.4745101156446824	   0.0121540583760581	   0.0000006962825597	   0.0000000387592288	   0.0006388019188605	  -0.0000000008665162	
  -0.6276427473822208	  -0.4745101156446824	   0.0121531016165417	   0.0000001225801000	   0.0000000407558204	   0.0001665537099891	   0.0000000000681169	
  -0.6161174488903114	  -0.4745101156446824	   0.0121573464038977	  -0.0000003007656003	   0.0000000109955769	  -0.0002062263162066	   0.0000000019684662	
  -0.6026140534010123	  -0.4745101156446824	   0.0121647912501258	  -0.0000000447646185	  -0.0000000250366814	   0.0000449386350612	   0.0000000045179816	
  -0.5871903845268873	  -0.4745101156446824	   0.0121702349408007	   0.0000011874863613	  -0.0000000559930688	   0.0012125984613383	   0.0000000072025196	
  -0.5699124887859406	  -0.4745101156446824	   0.0121668521410794	   0.0000033451341358	  -0.0000000752950084	   0.0032646813471086	   0.0000000095188469	
  -0.5508543527802856	  -0.4745101156446824	   0.0121476729533848	   0.0000060007415126	  -0.0000000731534988	   0.0057918516993920	   0.0000000111467973	
  -0.5300975863741567	  -0.4745101156446824	   0.0121071776363953	   0.0000084097310839	  -0.0000000527743554	   0.0080794163278676	   0.0000000120311114	
  -0.5077310732279419	  -0.4745101156446824	   0.0120423671912977	   0.0000096221245864	  -0.0000000106987900	   0.0092014498702655	   0.0000000123307068	
  -0.4838505901847025	  -0.4745101156446824	   0.0119533862902851	   0.0000086241829842	   0.0000000447202957	   0.0081710023286886	   0.0000000122825005	
  -0.4585583971390284	  -0.4745101156446824	   0.0118435006044032	   0.0000044671599751	   0.0000001136124624	   0.0040572028342887	   0.0000000120172385	
  -0.4319627991444692	  -0.4745101156446824	   0.0117186447267651	  -0.0000036232769686	   0.0000001864202933	  -0.0038982005170404	   0.0000000114228889	
  -0.4041776826346681	  -0.4745101156446824	   0.0115866270782733	  -0.0000161722195870	   0.0000002626712365	  -0.0162136712232972	   0.0000000100653706	
  -0.3753220277441687	  -0.4745101156446824	   0.0114562265073575	  -0.0000334053176671	   0.0000003337133063	  -0.0331121930685976	   0.0000000072143169	
  -0.3455193988172129	  -0.4745101156446824	   0.0113363148321507	  -0.0000552339274562	   0.0000003997345405	  -0.0545110129230184	   0.0000000019463674	
  -0.3148974152862489	  -0.4745101156446824	   0.0112351567652470	  -0.0000812645561987	   0.0000004539259476	  -0.0800261069437037	  -0.0000000066590336	
  -0.2835872051859284	  -0.4745101156446824	   0.0111599715689514	  -0.0001108338174668	   0.0000004974915831	  -0.1090088889772037	  -0.0000000192951047	
  -0.2517228436427322	  -0.4745101156446824	   0.0111167774700432	  -0.0001430472228317	   0.0000005251240104	  -0.1405809484527198	  -0.0000000361915422	
  -0.2194407787446939	  -0.4745101156446824	   0.0111104781530367	  -0.0001768153847543	   0.0000005379879859	  -0.1736712251047371	  -0.0000000569410046	
  -0.1868792472497396	  -0.4745101156446824	   0.0111450130828565	  -0.0002108683696092	   0.0000005306551369	  -0.2070295360512805	  -0.0000000804093956	
  -0.1541776826346681	  -0.4745101156446824	   0.0112233391791974	  -0.0002437529729400	   0.0000005026358846	  -0.2392266175533720	  -0.0000001048056923	
  -0.1214761180195964	  -0.4745101156446824	   0.0113469278043214	  -0.0002738197031395	   0.0000004474384094	  -0.2686442223662359	  -0.0000001279130464	
  -0.0889145865246422	  -0.4745101156446824	   0.0115146785069502	  -0.0002992411671192	   0.0000003637736332	  -0.2934952668385738	  -0.0000001474809014	
  -0.0566325216266039	  -0.4745101156446824	   0.0117214145827532	  -0.0003181014528202	   0.0000002474039980	  -0.3119131622549537	  -0.0000001616495967	
  -0.0247681600834077	  -0.4745101156446824	   0.0119565978458988	  -0.0003285921876456	   0.0000001018382631	  -0.3221400138522669	  -0.0000001692929934	
   0.0065420500169128	  -0.4745101156446824	   0.0122039615543123	  -0.0003292916458455	  -0.0000000688283596	  -0.3227982967117370	  -0.0000001701381215	
   0.0371640335478767	  -0.4745101156446824	   0.0124426307433359	  -0.0003194626387607	  -0.0000002522501319	  -0.3131754307542956	  -0.0000001646774985	
   0.0669666624748325	  -0.4745101156446824	   0.0126496447804867	  -0.0002992705526024	  -0.0000004361658006	  -0.2934389619436374	  -0.0000001539218733	
   0.0958223173653319	  -0.4745101156446824	   0.0128033830316816	  -0.0002698555649018	  -0.0000006039617579	  -0.2647024097836010	  -0.0000001391499746	
   0.1236074338751331	  -0.4745101156446824	   0.0128869684375748	  -0.0002332324335808	  -0.0000007428256622	  -0.2289342941282202	  -0.0000001216995902	
   0.1502030318696923	  -0.4745101156446824	   0.0128909234068020	  -0.0001920508919396	  -0.0000008399404160	  -0.1887181818915425	  -0.0000001028650690	
   0.1754952249153664	  -0.4745101156446824	   0.0128144684392264	  -0.0001492691184242	  -0.0000008888172771	  -0.1469426562593146	  -0.0000000838205964	
   0.1993757079586057	  -0.4745101156446824	   0.0126654201096316	  -0.0001078095146060	  -0.0000008846772600	  -0.1064551497214676	  -0.0000000655933567	
   0.2217422211048206	  -0.4745101156446824	   0.0124587793827591	  -0.0000702476589913	  -0.0000008294420915	  -0.0697699110017153	  -0.0000000490022334	
   0.2424989875109494	  -0.4745101156446824	   0.0122145534666125	  -0.0000385766774601	  -0.0000007259574066	  -0.0388232170560365	  -0.0000000346508262	
   0.2615571235166045	  -0.4745101156446824	   0.0119551547342268	  -0.0000140598242046	  -0.0000005827544239	  -0.0148467170475057	  -0.0000000228914932	
   0.2788350192575513	  -0.4745101156446824	   0.0117029319047640	   0.0000028264982977	  -0.0000004079459386	   0.0017096334325895	  -0.0000000138799627	
   0.2942586881316760	  -0.4745101156446824	   0.0114778874636031	   0.0000123776415685	  -0.0000002149060511	   0.0111356552962975	  -0.0000000075621676	
   0.3077620836209753	  -0.4745101156446824	   0.0112958182749830	   0.0000155897464199	  -0.0000000170398247	   0.0144247239317542	  -0.0000000037458703	
   0.3192873821128848	  -0.4745101156446824	   0.0111665542435858	   0.0000140445858307	   0.0000001649202636	   0.0131137535827266	  -0.0000000020047224	
   0.3287852305098661	  -0.4745101156446824	   0.0110923763247014	   0.0000097494938754	   0.0000003059231756	   0.0091841470038533	  -0.0000000017297207	
   0.3362149575669472	  -0.4745101156446824	   0.0110663472253401	   0.0000048750649894	   0.0000003598430681	   0.0047053661921623	  -0.0000000019880758	
   0.3415447480522372	  -0.4745101156446824	   0.0110714097693362	   0.0000013666768393	   0.0000003134787598	   0.0015624347704248	  -0.0000000018920202	
   0.3447517789846337	  -0.4745101156446824	   0.0110821645359268	   0.0000000766176320	   0.0000000570307616	   0.0002868081607184	  -0.0000000008428635	
   0.3458223173653320	  -0.4745101156446824	   0.0000000000000000	   0.0000000000000000	   0.0000000000000000	  -0.0000075393275824	   0.0000000000000000	
  -0.6531866555750716	  -0.4714600479784665	   0.0000000000000000	   0.0000000000000000	   0.0000000000000000	   0.0004284871345649	   0.0000000000000000	
  -0.6521161171943733	  -0.4714600479784665	   0.0121611186775974	   0.0000003054334058	  -0.0000004043982622	   0.0002424348258128	  -0.0000000003408597	
  -0.6489090862619769	  -0.4714600479784665	   0.0121616759533857	   0.0000013207826287	  -0.0000005980535900	   0.0000231451989198	  -0.0000000003487473	
  -0.6435792957766868	  -0.4714600479784665	   0.0121600669737018	   0.0000023653289707	  -0.0000000369643103	   0.0001563947275941	  -0.0000000000501850	
  -0.6361495687196057	  -0.4714600479784665	   0.0121570500454281	   0.0000021324270281	   0.0000004604115139	   0.0003437150279468	   0.0000000000520413	
  -0.6266517203226245	  -0.4714600479784665	   0.0121559458624209	   0.0000007112945233	   0.0000004720942182	   0.0002930216334322	   0.0000000017792924	
  -0.6151264218307150	  -0.4714600479784665	   0.0121587539283990	  -0.0000003117319800	   0.0000001166317147	   0.0002193091230179	   0.0000000078742257	
  -0.6016230263414157	  -0.4714600479784665	   0.0121640443530353	   0.0000009433312208	  -0.0000003953380081	   0.0005329692302254	   0.0000000200000869	
  -0.5861993574672910	  -0.4714600479784665	   0.0121673040073142	   0.0000056227584155	  -0.0000008564340667	   0.0015351870353729	   0.0000000378851605	
  -0.5689214617263443	  -0.4714600479784665	   0.0121621672548105	   0.0000135873714532	  -0.0000011190019027	   0.0032357945713253	   0.0000000593355725	
  -0.5498633257206892	  -0.4714600479784665	   0.0121420246723263	   0.0000232532939461	  -0.0000010919885078	   0.0053033186970667	   0.0000000806791733	
  -0.5291065593145603	  -0.4714600479784665	   0.0121015012482563	   0.0000317832863150	  -0.0000007463292319	   0.0070910006137036	   0.0000000973609337	
  -0.5067400461683453	  -0.4714600479784665	   0.0120376295029251	   0.0000355110554575	  -0.0000000998635358	   0.0077400385315644	   0.0000001044126133	
  -0.4828595631251061	  -0.4714600479784665	   0.0119504454793398	   0.0000304864513984	   0.0000007937259892	   0.0063041052842840	   0.0000000967070769	
  -0.4575673700794320	  -0.4714600479784665	   0.0118430512106375	   0.0000129923289241	   0.0000018636000500	   0.0018839237343839	   0.0000000690592555	
  -0.4309717720848728	  -0.4714600479784665	   0.0117211691215943	  -0.0000200200548349	   0.0000030311251378	  -0.0062683465029900	   0.0000000163114053	
  -0.4031866555750717	  -0.4714600479784665	   0.0115924028771624	  -0.0000706232464071	   0.0000042196802092	  -0.0186654802843983	  -0.0000000664586892	
  -0.3743310006845723	  -0.4714600479784665	   0.0114653434590094	  -0.0001397137211630	   0.0000053582840330	  -0.0355387691069809	  -0.0000001835689091	
  -0.3445283717576165	  -0.4714600479784665	   0.0113487173363434	  -0.0002269436498606	   0.0000063864918133	  -0.0568144475859262	  -0.0000003381618519	
  -0.3139063882266525	  -0.4714600479784665	   0.0112506842118350	  -0.0003307545625533	   0.0000072552353697	  -0.0821232369175819	  -0.0000005315214620	
  -0.2825961781263320	  -0.4714600479784665	   0.0111783888974902	  -0.0004485030406553	   0.0000079259745637	  -0.1108239296940144	  -0.0000007623210571	
  -0.2507318165831358	  -0.4714600479784665	   0.0111377806349205	  -0.0005766081091288	   0.0000083662940229	  -0.1420403497610806	  -0.0000010259619896	
  -0.2184497516850974	  -0.4714600479784665	   0.0111336583701561	  -0.0007106869079535	   0.0000085432814194	  -0.1746901122693805	  -0.0000013140452538	
  -0.1858882201901432	  -0.4714600479784665	   0.0111697906501957	  -0.0008456197594483	   0.0000084174607498	  -0.2075065436775159	  -0.0000016141735372	
  -0.1531866555750716	  -0.4714600479784665	   0.0112488693677222	  -0.0009755579024126	   0.0000079377917606	  -0.2390449160695542	  -0.0000019101987118	
  -0.1204850909600000	  -0.4714600479784665	   0.0113720330572580	  -0.0010939084767373	   0.0000070455536672	  -0.2676928789604103	  -0.0000021831826295	
  -0.0879235594650458	  -0.4714600479784665	   0.0115378274366814	  -0.0011934411646861	   0.0000056855150140	  -0.2917035752891385	  -0.0000024130745858	
  -0.0556414945670075	  -0.4714600479784665	   0.0117408072521550	  -0.0012666625674951	   0.0000038308419363	  -0.3092924550151641	  -0.0000025810325641	
  -0.0237771330238113	  -0.4714600479784665	   0.0119703312724584	  -0.0013065796866854	   0.0000015065031948	  -0.3188125179301691	  -0.0000026718930319	
   0.0075330770765092	  -0.4714600479784665	   0.0122102797613435	  -0.0013077686359153	  -0.0000011901465570	  -0.3190013170523371	  -0.0000026763331831	
   0.0381550606074731	  -0.4714600479784665	   0.0124401685030350	  -0.0012675069551333	  -0.0000040930639603	  -0.3092376342381449	  -0.0000025921816382	
   0.0679576895344290	  -0.4714600479784665	   0.0126376523416696	  -0.0011866028893558	  -0.0000069827609273	  -0.2897363323180765	  -0.0000024247623200	
   0.0968133444249283	  -0.4714600479784665	   0.0127818446445473	  -0.0010696648176748	  -0.0000096228597793	  -0.2616103072378235	  -0.0000021862386194	
   0.1245984609347295	  -0.4714600479784665	   0.0128566498896735	  -0.0009247041346270	  -0.0000117885013249	  -0.2267816280407095	  -0.0000018942508558	
   0.1511940589292887	  -0.4714600479784665	   0.0128532944803832	  -0.0007621922233345	  -0.0000133008199937	  -0.1877562264711834	  -0.0000015699866608	
   0.1764862519749628	  -0.4714600479784665	   0.0127715854963745	  -0.0005937744888122	  -0.0000140371799710	  -0.1473200118717780	  -0.0000012359964500	
   0.2003667350182021	  -0.4714600479784665	   0.0126197232801943	  -0.0004309149494522	  -0.0000139471737844	  -0.1082104938120065	  -0.0000009139137313	
   0.2227332481644170	  -0.4714600479784665	   0.0124129167552093	  -0.0002836711909973	  -0.0000130401457165	  -0.0728250649389791	  -0.0000006224437058	
   0.2434900145705459	  -0.4714600479784665	   0.0121711606353324	  -0.0001597709445389	  -0.0000113897518527	  -0.0429946652814469	  -0.0000003758000440	
   0.2625481505762009	  -0.4714600479784665	   0.0119167124456258	  -0.0000640335773542	  -0.0000091088608156	  -0.0198482351728984	  -0.0000001828209543	
   0.2798260463171477	  -0.4714600479784665	   0.0116715728374050	   0.0000018453945321	  -0.0000063602481947	  -0.0037563680891976	  -0.0000000466939298	
   0.2952497151912725	  -0.4714600479784665	   0.0114552860246416	   0.0000392339454559	  -0.0000033336084780	   0.0056472086222433	   0.0000000348079305	
   0.3087531106805718	  -0.4714600479784665	   0.0112829490350117	   0.0000522639035555	  -0.0000002854745042	   0.0093960422853354	   0.0000000688400656	
   0.3202784091724812	  -0.4714600479784665	   0.0111634839015786	   0.0000473682589998	   0.0000024690986141	   0.0090618869135605	   0.0000000668885970	
   0.3297762575694625	  -0.4714600479784665	   0.0110977551332356	   0.0000325565847898	   0.0000044614886987	   0.0065695836572860	   0.0000000439265365	
   0.3372059846265436	  -0.4714600479784665	   0.0110769363018908	   0.0000162650177184	   0.0000050917639424	   0.0038556802819226	   0.0000000167939723	
   0.3425357751118336	  -0.4714600479784665	   0.0110821699433274	   0.0000051184707917	   0.0000037169828986	   0.0022252097587873	   0.0000000001641398	
   0.3457428060442301	  -0.4714600479784665	   0.0110929513670119	   0.0000007336378270	   0.0000011944695977	   0.0015617297352733	  -0.0000000018901909	
   0.3468133444249284	  -0.4714600479784665	   0.0000000000000000	   0.0000000000000000	   0.0000000000000000	   0.0013400745079935	   0.0000000000000000	
  -0.6515396597386596	  -0.4663911160069434	   0.0000000000000000	   0.0000000000000000	   0.0000000000000000	   0.0005694571787407	   0.0000000000000000	
  -0.6504691213579613	  -0.4663911160069434	   0.0121646579803456	   0.0000007059889868	  -0.0000006873583943	   0.0003711627440749	  -0.0000000000788132	
  -0.6472620904255647	  -0.4663911160069434	   0.0121632670647215	   0.0000021237936687	  -0.0000012596930418	  -0.0000062407630700	   0.0000000016715865	
  -0.6419322999402748	  -0.4663911160069434	   0.0121616838208248	   0.0000032176657808	  -0.0000002486348508	  -0.0001634712870832	   0.0000000053122431	
  -0.6345025728831937	  -0.4663911160069434	   0.0121598985358350	   0.0000031565330023	   0.0000011829442939	   0.0000321076145414	   0.0000000074212913	
  -0.6250047244862124	  -0.4663911160069434	   0.0121590289922009	   0.0000019420209679	   0.0000013684206562	   0.0003509992065856	   0.0000000104608182	
  -0.6134794259943029	  -0.4663911160069434	   0.0121603208081188	   0.0000016035575296	   0.0000000499868023	   0.0006468286280409	   0.0000000251028986	
  -0.5999760305050037	  -0.4663911160069434	   0.0121628999285820	   0.0000052408210402	  -0.0000020361989692	   0.0010773813613778	   0.0000000628077715	
  -0.5845523616308789	  -0.4663911160069434	   0.0121631385849820	   0.0000150423158430	  -0.0000039944527256	   0.0018645231070522	   0.0000001284298121	
  -0.5672744658899321	  -0.4663911160069434	   0.0121554808652219	   0.0000307801842469	  -0.0000050858863933	   0.0030620042098574	   0.0000002164322448	
  -0.5482163298842772	  -0.4663911160069434	   0.0121338986330368	   0.0000492694894938	  -0.0000048419120740	   0.0044332159490796	   0.0000003105091450	
  -0.5274595634781483	  -0.4663911160069434	   0.0120933391461926	   0.0000646043723184	  -0.0000030810603221	   0.0054477876985976	   0.0000003855222964	
  -0.5050930503319333	  -0.4663911160069434	   0.0120309148775348	   0.0000690161897521	   0.0000001359615249	   0.0053470103338857	   0.0000004106741332	
  -0.4812125672886940	  -0.4663911160069434	   0.0119465439844546	   0.0000540078975566	   0.0000045650305444	   0.0032642854787110	   0.0000003529499453	
  -0.4559203742430199	  -0.4663911160069434	   0.0118430832454628	   0.0000115142785461	   0.0000098666608118	  -0.0016518849916498	   0.0000001802747652	
  -0.4293247762484608	  -0.4663911160069434	   0.0117259351670538	  -0.0000651327515427	   0.0000156546219371	  -0.0101212125904498	  -0.0000001358171224	
  -0.4015396597386596	  -0.4663911160069434	   0.0116023761317353	  -0.0001804821730957	   0.0000215507145256	  -0.0226508794446483	  -0.0000006178705072	
  -0.3726840048481602	  -0.4663911160069434	   0.0114806913519353	  -0.0003365170433599	   0.0000271987586508	  -0.0394772206446389	  -0.0000012805206789	
  -0.3428813759212045	  -0.4663911160069434	   0.0113693646496797	  -0.0005324689548572	   0.0000322964473444	  -0.0605443024536265	  -0.0000021287300224	
  -0.3122593923902404	  -0.4663911160069434	   0.0112763678632217	  -0.0007648800478079	   0.0000365902115945	  -0.0855006028701122	  -0.0000031563987306	
  -0.2809491822899199	  -0.4663911160069434	   0.0112087120063352	  -0.0010278369800027	   0.0000398812275683	  -0.1137213950094890	  -0.0000043452725156	
  -0.2490848207467237	  -0.4663911160069434	   0.0111722109043939	  -0.0013132774882649	   0.0000419933891269	  -0.1443328444028316	  -0.0000056642429840	
  -0.2168027558486854	  -0.4663911160069434	   0.0111714867936598	  -0.0016112639488635	   0.0000427558524881	  -0.1762432888936040	  -0.0000070688689380	
  -0.1842412243537312	  -0.4663911160069434	   0.0112100197291319	  -0.0019101569819548	   0.0000419641955012	  -0.2081641454742460	  -0.0000085014007118	
  -0.1515396597386596	  -0.4663911160069434	   0.0112900906768508	  -0.0021966936153074	   0.0000393751506088	  -0.2386364995657543	  -0.0000098915740777	
  -0.1188380951235880	  -0.4663911160069434	   0.0114123157585581	  -0.0024560794647095	   0.0000347127767024	  -0.2660600512745045	  -0.0000111590698203	
  -0.0862765636286337	  -0.4663911160069434	   0.0115747150079245	  -0.0026723381231240	   0.0000277376797694	  -0.2887543882625434	  -0.0000122182293403	
  -0.0539944987305954	  -0.4663911160069434	   0.0117714380248963	  -0.0028292137774006	   0.0000183443071445	  -0.3050593520227614	  -0.0000129856205430	
  -0.0221301371873992	  -0.4663911160069434	   0.0119917203033192	  -0.0029118170580419	   0.0000066866969310	  -0.3134994052387748	  -0.0000133897659455	
   0.0091800729129212	  -0.4663911160069434	   0.0122196836659063	  -0.0029088697812713	  -0.0000067460159468	  -0.3129886687163675	  -0.0000133816779865	
   0.0398020564438852	  -0.4663911160069434	   0.0124354870854143	  -0.0028150426516247	  -0.0000211243406141	  -0.3030495008311739	  -0.0000129436538919	
   0.0696046853708410	  -0.4663911160069434	   0.0126177495018231	  -0.0026326716429865	  -0.0000353738787362	  -0.2839708889694352	  -0.0000120943423999	
   0.0984603402613403	  -0.4663911160069434	   0.0127467610413843	  -0.0023722857288575	  -0.0000483244811353	  -0.2568639838733643	  -0.0000108885145523	
   0.1262454567711416	  -0.4663911160069434	   0.0128076436633000	  -0.0020517280698090	  -0.0000588798862717	  -0.2235744785557864	  -0.0000094117367004	
   0.1528410547657008	  -0.4663911160069434	   0.0127927520583545	  -0.0016940812058458	  -0.0000661554692085	  -0.1864789055444421	  -0.0000077706919485	
   0.1781332478113749	  -0.4663911160069434	   0.0127027935072973	  -0.0013248550250092	  -0.0000695694859751	  -0.1481945312968386	  -0.0000060811325721	
   0.2020137308546142	  -0.4663911160069434	   0.0125465857051101	  -0.0009690075749332	  -0.0000688790250849	  -0.1112752001462276	  -0.0000044551348602	
   0.2243802440008291	  -0.4663911160069434	   0.0123396175833395	  -0.0006482711323463	  -0.0000641704330844	  -0.0779290858174408	  -0.0000029898419269	
   0.2451370104069579	  -0.4663911160069434	   0.0121018559472264	  -0.0003791305888590	  -0.0000558217480109	  -0.0498113729824193	  -0.0000017587859123	
   0.2641951464126130	  -0.4663911160069434	   0.0118552152173090	  -0.0001715804872965	  -0.0000444529485762	  -0.0278893625070926	  -0.0000008068509182	
   0.2814730421535598	  -0.4663911160069434	   0.0116210871993612	  -0.0000286643529695	  -0.0000308964093997	  -0.0123996823318212	  -0.0000001484262155	
   0.2968967110276846	  -0.4663911160069434	   0.0114180836340824	   0.0000533493740242	  -0.0000161983470148	  -0.0028639146198800	   0.0000002315292959	
   0.3104001065169838	  -0.4663911160069434	   0.0112600208581834	   0.0000842561691995	  -0.0000016942813469	   0.0018213539863116	   0.0000003748170809	
   0.3219254050088932	  -0.4663911160069434	   0.0111539776954540	   0.0000787206768173	   0.0000108559157381	   0.0032438863432885	   0.0000003456864175	
   0.3314232534058745	  -0.4663911160069434	   0.0110984042488037	   0.0000542724216516	   0.0000190973775561	   0.0032027872455732	   0.0000002244279025	
   0.3388529804629556	  -0.4663911160069434	   0.0110820940531255	   0.0000277448958515	   0.0000203717037524	   0.0032241892024648	   0.0000000945148498	