 title="result"
 variables="x","y","P","u","v","t","omega","psi","RES1","RES2","RES3","RES4"
zone,j= 49,i= 49,f=point
 -0.2108   0.6750    0.2457353343751913E-01    0.0000000000000000E+00    0.0000000000000000E+00   -0.5000000000000000E+00    0.0000000000000000E+00    0.0000000000000000E+00    0.0000000000000000E+00    0.0000000000000000E+00    0.0000000000000000E+00    0.0000000000000000E+00
 -0.2113   0.6740    0.2504519624421910E-01    0.0000000000000000E+00    0.0000000000000000E+00   -0.4949818391192385E+00    0.4645228257074087E-03    0.0000000000000000E+00    0.0000000000000000E+00    0.0000000000000000E+00    0.0000000000000000E+00    0.0000000000000000E+00
 -0.2128   0.6712    0.2640389000116478E-01    0.0000000000000000E+00    0.0000000000000000E+00   -0.4799519384600358E+00   -0.4735081647551191E-02    0.0000000000000000E+00    0.0000000000000000E+00    0.0000000000000000E+00    0.0000000000000000E+00    0.0000000000000000E+00
 -0.2153   0.6664    0.2856939425756495E-01    0.0000000000000000E+00    0.0000000000000000E+00   -0.4550031074938804E+00   -0.4420727681297971E-01    0.0000000000000000E+00    0.0000000000000000E+00    0.0000000000000000E+00    0.0000000000000000E+00    0.0000000000000000E+00
 -0.2187   0.6599    0.3150716153337722E-01    0.0000000000000000E+00    0.0000000000000000E+00   -0.4203583627422597E+00   -0.1387187263521700E+00    0.0000000000000000E+00    0.0000000000000000E+00    0.0000000000000000E+00    0.0000000000000000E+00    0.0000000000000000E+00
 -0.2231   0.6515    0.3515365341160084E-01    0.0000000000000000E+00    0.0000000000000000E+00   -0.3764875641400215E+00   -0.2836021013151238E+00    0.0000000000000000E+00    0.0000000000000000E+00    0.0000000000000000E+00    0.0000000000000000E+00    0.0000000000000000E+00
 -0.2285   0.6412    0.3935211256952233E-01    0.0000000000000000E+00    0.0000000000000000E+00   -0.3242775733268181E+00   -0.4547585456101696E+00    0.0000000000000000E+00    0.0000000000000000E+00    0.0000000000000000E+00    0.0000000000000000E+00    0.0000000000000000E+00
 -0.2347   0.6293    0.4383199338100651E-01    0.0000000000000000E+00    0.0000000000000000E+00   -0.2652140414842897E+00   -0.6182056544911527E+00    0.0000000000000000E+00    0.0000000000000000E+00    0.0000000000000000E+00    0.0000000000000000E+00    0.0000000000000000E+00
 -0.2419   0.6156    0.4821422884285287E-01    0.0000000000000000E+00    0.0000000000000000E+00   -0.2014875256485626E+00   -0.7417973336841346E+00    0.0000000000000000E+00    0.0000000000000000E+00    0.0000000000000000E+00    0.0000000000000000E+00    0.0000000000000000E+00
 -0.2499   0.6003    0.5205259107291647E-01    0.0000000000000000E+00    0.0000000000000000E+00   -0.1359272448238384E+00   -0.8070082552217714E+00    0.0000000000000000E+00    0.0000000000000000E+00    0.0000000000000000E+00    0.0000000000000000E+00    0.0000000000000000E+00
 -0.2588   0.5834    0.5490261578154396E-01    0.0000000000000000E+00    0.0000000000000000E+00   -0.7172178937008941E-01   -0.8181691996082778E+00    0.0000000000000000E+00    0.0000000000000000E+00    0.0000000000000000E+00    0.0000000000000000E+00    0.0000000000000000E+00
 -0.2684   0.5651    0.5640992973602871E-01    0.0000000000000000E+00    0.0000000000000000E+00   -0.1198650506965085E-01   -0.8043562916658371E+00    0.0000000000000000E+00    0.0000000000000000E+00    0.0000000000000000E+00    0.0000000000000000E+00    0.0000000000000000E+00
 -0.2788   0.5452    0.5638507054514619E-01    0.0000000000000000E+00    0.0000000000000000E+00    0.4069009240378263E-01   -0.8106891098948121E+00    0.0000000000000000E+00    0.0000000000000000E+00    0.0000000000000000E+00    0.0000000000000000E+00    0.0000000000000000E+00
 -0.2899   0.5241    0.5483139644096544E-01    0.0000000000000000E+00    0.0000000000000000E+00    0.8459747703079790E-01   -0.8823101424793732E+00    0.0000000000000000E+00    0.0000000000000000E+00    0.0000000000000000E+00    0.0000000000000000E+00    0.0000000000000000E+00
 -0.3016   0.5017    0.5191121882565477E-01    0.0000000000000000E+00    0.0000000000000000E+00    0.1190906078883795E+00   -0.1050662786956259E+01    0.0000000000000000E+00    0.0000000000000000E+00    0.0000000000000000E+00    0.0000000000000000E+00    0.0000000000000000E+00
 -0.3139   0.4781    0.4787791095210325E-01    0.0000000000000000E+00    0.0000000000000000E+00    0.1445974141018792E+00   -0.1330177073092236E+01    0.0000000000000000E+00    0.0000000000000000E+00    0.0000000000000000E+00    0.0000000000000000E+00    0.0000000000000000E+00
 -0.3268   0.4535    0.4301613449010019E-01    0.0000000000000000E+00    0.0000000000000000E+00    0.1624400901587836E+00   -0.1724018063045445E+01    0.0000000000000000E+00    0.0000000000000000E+00    0.0000000000000000E+00    0.0000000000000000E+00    0.0000000000000000E+00
 -0.3402   0.4280    0.3761409145699915E-01    0.0000000000000000E+00    0.0000000000000000E+00    0.1744880612907164E+00   -0.2230927366988023E+01    0.0000000000000000E+00    0.0000000000000000E+00    0.0000000000000000E+00    0.0000000000000000E+00    0.0000000000000000E+00
 -0.3541   0.4016    0.3196054126452409E-01    0.0000000000000000E+00    0.0000000000000000E+00    0.1827262078439415E+00   -0.2847481746434645E+01    0.0000000000000000E+00    0.0000000000000000E+00    0.0000000000000000E+00    0.0000000000000000E+00    0.0000000000000000E+00
 -0.3683   0.3744    0.2635119124913292E-01    0.0000000000000000E+00    0.0000000000000000E+00    0.1888788900468727E+00   -0.3566353476489227E+01    0.0000000000000000E+00    0.0000000000000000E+00    0.0000000000000000E+00    0.0000000000000000E+00    0.0000000000000000E+00
 -0.3828   0.3467    0.2109313242703119E-01    0.0000000000000000E+00    0.0000000000000000E+00    0.1942081134832189E+00   -0.4373776393334919E+01    0.0000000000000000E+00    0.0000000000000000E+00    0.0000000000000000E+00    0.0000000000000000E+00    0.0000000000000000E+00
 -0.3976   0.3185    0.1650258997306263E-01    0.0000000000000000E+00    0.0000000000000000E+00    0.1995066498915031E+00   -0.5248397030980987E+01    0.0000000000000000E+00    0.0000000000000000E+00    0.0000000000000000E+00    0.0000000000000000E+00    0.0000000000000000E+00
 -0.4126   0.2899    0.1289309478522483E-01    0.0000000000000000E+00    0.0000000000000000E+00    0.2052132959622421E+00   -0.6161879900256104E+01    0.0000000000000000E+00    0.0000000000000000E+00    0.0000000000000000E+00    0.0000000000000000E+00    0.0000000000000000E+00
 -0.4277   0.2610    0.1055554662817318E-01    0.0000000000000000E+00    0.0000000000000000E+00    0.2115533613555231E+00   -0.7080705699628702E+01    0.0000000000000000E+00    0.0000000000000000E+00    0.0000000000000000E+00    0.0000000000000000E+00    0.0000000000000000E+00
 -0.4429   0.2321    0.9733779671887030E-02    0.0000000000000000E+00    0.0000000000000000E+00    0.2186446805005707E+00   -0.7968178187296013E+01    0.0000000000000000E+00    0.0000000000000000E+00    0.0000000000000000E+00    0.0000000000000000E+00    0.0000000000000000E+00
 -0.4581   0.2031    0.1060003127471044E-01    0.0000000000000000E+00    0.0000000000000000E+00    0.2265571358127298E+00   -0.8785852813743078E+01    0.0000000000000000E+00    0.0000000000000000E+00    0.0000000000000000E+00    0.0000000000000000E+00    0.0000000000000000E+00
 -0.4732   0.1743    0.1323182156285281E-01    0.0000000000000000E+00    0.0000000000000000E+00    0.2353386526829373E+00   -0.9494086398728802E+01    0.0000000000000000E+00    0.0000000000000000E+00    0.0000000000000000E+00    0.0000000000000000E+00    0.0000000000000000E+00
 -0.4882   0.1457    0.1759022277251526E-01    0.0000000000000000E+00    0.0000000000000000E+00    0.2450234243933325E+00   -0.1005216208701177E+02    0.0000000000000000E+00    0.0000000000000000E+00    0.0000000000000000E+00    0.0000000000000000E+00    0.0000000000000000E+00
 -0.5029   0.1175    0.2349932051496041E-01    0.0000000000000000E+00    0.0000000000000000E+00    0.2556323809712125E+00   -0.1041893785967034E+02    0.0000000000000000E+00    0.0000000000000000E+00    0.0000000000000000E+00    0.0000000000000000E+00    0.0000000000000000E+00
 -0.5175   0.0897    0.3063031788230031E-01    0.0000000000000000E+00    0.0000000000000000E+00    0.2671706413607484E+00   -0.1055519388433523E+02    0.0000000000000000E+00    0.0000000000000000E+00    0.0000000000000000E+00    0.0000000000000000E+00    0.0000000000000000E+00
 -0.5317   0.0626    0.3849824964912076E-01    0.0000000000000000E+00    0.0000000000000000E+00    0.2796239923990628E+00   -0.1042845170700217E+02    0.0000000000000000E+00    0.0000000000000000E+00    0.0000000000000000E+00    0.0000000000000000E+00    0.0000000000000000E+00
 -0.5455   0.0362    0.4648316341505577E-01    0.0000000000000000E+00    0.0000000000000000E+00    0.2929554914411506E+00   -0.1002016482764571E+02    0.0000000000000000E+00    0.0000000000000000E+00    0.0000000000000000E+00    0.0000000000000000E+00    0.0000000000000000E+00
 -0.5589   0.0106    0.5388579426346661E-01    0.0000000000000000E+00    0.0000000000000000E+00    0.3071030129010445E+00   -0.9333733929413318E+01    0.0000000000000000E+00    0.0000000000000000E+00    0.0000000000000000E+00    0.0000000000000000E+00    0.0000000000000000E+00
 -0.5718  -0.0140    0.6001836222367350E-01    0.0000000000000000E+00    0.0000000000000000E+00    0.3219783024103626E+00   -0.8400514735149571E+01    0.0000000000000000E+00    0.0000000000000000E+00    0.0000000000000000E+00    0.0000000000000000E+00    0.0000000000000000E+00
 -0.5842  -0.0375    0.6431480359573757E-01    0.0000000000000000E+00    0.0000000000000000E+00    0.3374675670964442E+00   -0.7280500964890595E+01    0.0000000000000000E+00    0.0000000000000000E+00    0.0000000000000000E+00    0.0000000000000000E+00    0.0000000000000000E+00
 -0.5959  -0.0599    0.6642985398755415E-01    0.0000000000000000E+00    0.0000000000000000E+00    0.3534328182009251E+00   -0.6055727122443184E+01    0.0000000000000000E+00    0.0000000000000000E+00    0.0000000000000000E+00    0.0000000000000000E+00    0.0000000000000000E+00
 -0.6070  -0.0811    0.6629342980557343E-01    0.0000000000000000E+00    0.0000000000000000E+00    0.3697124146480790E+00   -0.4817223796156135E+01    0.0000000000000000E+00    0.0000000000000000E+00    0.0000000000000000E+00    0.0000000000000000E+00    0.0000000000000000E+00
 -0.6174  -0.1009    0.6410138225299503E-01    0.0000000000000000E+00    0.0000000000000000E+00    0.3861191546112776E+00   -0.3649465777993188E+01    0.0000000000000000E+00    0.0000000000000000E+00    0.0000000000000000E+00    0.0000000000000000E+00    0.0000000000000000E+00
 -0.6270  -0.1193    0.6024937895986223E-01    0.0000000000000000E+00    0.0000000000000000E+00    0.4024354585491639E+00   -0.2617408518691672E+01    0.0000000000000000E+00    0.0000000000000000E+00    0.0000000000000000E+00    0.0000000000000000E+00    0.0000000000000000E+00
 -0.6358  -0.1362    0.5523797243558105E-01    0.0000000000000000E+00    0.0000000000000000E+00    0.4184077499890837E+00   -0.1759981293685757E+01    0.0000000000000000E+00    0.0000000000000000E+00    0.0000000000000000E+00    0.0000000000000000E+00    0.0000000000000000E+00
 -0.6439  -0.1515    0.4958258139464920E-01    0.0000000000000000E+00    0.0000000000000000E+00    0.4337449613247000E+00   -0.1090684207048585E+01    0.0000000000000000E+00    0.0000000000000000E+00    0.0000000000000000E+00    0.0000000000000000E+00    0.0000000000000000E+00
 -0.6510  -0.1651    0.4375125900328582E-01    0.0000000000000000E+00    0.0000000000000000E+00    0.4481269798993258E+00   -0.6032292739672153E+00    0.0000000000000000E+00    0.0000000000000000E+00    0.0000000000000000E+00    0.0000000000000000E+00    0.0000000000000000E+00
 -0.6573  -0.1771    0.3813623532130564E-01    0.0000000000000000E+00    0.0000000000000000E+00    0.4612258935564958E+00   -0.2784889415226856E+00    0.0000000000000000E+00    0.0000000000000000E+00    0.0000000000000000E+00    0.0000000000000000E+00    0.0000000000000000E+00
 -0.6626  -0.1873    0.3305000913526673E-01    0.0000000000000000E+00    0.0000000000000000E+00    0.4727365172458177E+00   -0.8979150564364773E-01    0.0000000000000000E+00    0.0000000000000000E+00    0.0000000000000000E+00    0.0000000000000000E+00    0.0000000000000000E+00
 -0.6670  -0.1957    0.2873031306312442E-01    0.0000000000000000E+00    0.0000000000000000E+00    0.4824063815064731E+00   -0.4830701395061251E-02    0.0000000000000000E+00    0.0000000000000000E+00    0.0000000000000000E+00    0.0000000000000000E+00    0.0000000000000000E+00
 -0.6705  -0.2023    0.2533843442155014E-01    0.0000000000000000E+00    0.0000000000000000E+00    0.4900537396665922E+00    0.1372230088029633E-01    0.0000000000000000E+00    0.0000000000000000E+00    0.0000000000000000E+00    0.0000000000000000E+00    0.0000000000000000E+00
 -0.6730  -0.2070    0.2294800964851695E-01    0.0000000000000000E+00    0.0000000000000000E+00    0.4955672763585510E+00    0.5594675849978639E-02    0.0000000000000000E+00    0.0000000000000000E+00    0.0000000000000000E+00    0.0000000000000000E+00    0.0000000000000000E+00
 -0.6745  -0.2098    0.2153637926328654E-01    0.0000000000000000E+00    0.0000000000000000E+00    0.4988903829189402E+00   -0.4571003980640098E-04    0.0000000000000000E+00    0.0000000000000000E+00    0.0000000000000000E+00    0.0000000000000000E+00    0.0000000000000000E+00
 -0.6750  -0.2108    0.2106637527117790E-01    0.0000000000000000E+00    0.0000000000000000E+00    0.5000000000000000E+00    0.0000000000000000E+00    0.0000000000000000E+00    0.0000000000000000E+00    0.0000000000000000E+00    0.0000000000000000E+00    0.0000000000000000E+00
 -0.2098   0.6745    0.2482205764495870E-01    0.0000000000000000E+00    0.0000000000000000E+00   -0.5000000000000000E+00    0.4649794466334603E-03    0.0000000000000000E+00    0.0000000000000000E+00    0.0000000000000000E+00    0.0000000000000000E+00    0.0000000000000000E+00
 -0.2103   0.6735    0.2529247494876481E-01   -0.1280399531722967E-07    0.1307818971057807E-07   -0.4949816846901402E+00   -0.6933825642829075E-03    0.2495004177204295E-10    0.1158224874461735E-08    0.5314225622055080E-12    0.5163842443922650E-12   -0.1192965604773777E-10
 -0.2118   0.6707    0.2665345694742479E-01    0.6936329365107320E-05   -0.2339058557939188E-05   -0.4799513108051809E+00   -0.8738210156441564E-02   -0.3360931070017767E-08    0.1161953280988393E-08    0.9885130908271478E-12    0.7582528355198903E-12   -0.4862458699572692E-10
 -0.2143   0.6660    0.2882326765227862E-01    0.4771084371462632E-04   -0.5747283929631137E-05   -0.4550016307748739E+00   -0.4520204595778865E-01   -0.2552843499146799E-07    0.1166126369078757E-08    0.8666840574204915E-12    0.7305406279911608E-12   -0.1094921167621443E-09
 -0.2178   0.6594    0.3175559630576946E-01    0.1445649651322093E-03   -0.8032292976658527E-05   -0.4203555644925708E+00   -0.1315911103217142E+00   -0.7805979897543917E-07    0.1170021012367184E-08    0.1468374033475328E-12    0.8138836826709905E-12   -0.1939759325386703E-09
 -0.2222   0.6510    0.3538351076762010E-01    0.2945508199155703E-03   -0.8737559118545278E-05   -0.3764829222645596E+00   -0.2668222724848761E+00   -0.1592753919607628E-06    0.1173214175115289E-08   -0.1264995053151807E-11    0.8139461327161257E-12   -0.3003250426125703E-09
 -0.2275   0.6407    0.3955176623811034E-01    0.4733399433722172E-03   -0.7809982085551539E-05   -0.3242706482273242E+00   -0.4296535919945766E+00   -0.2557419126690442E-06    0.1174688811500513E-08   -0.3208759646877724E-11    0.8102823967348627E-12   -0.4243246309876270E-09
 -0.2338   0.6288    0.4399255924287374E-01    0.6456473116993467E-03   -0.5833557589253478E-05   -0.2652046480282103E+00   -0.5880887741201671E+00   -0.3484610317508783E-06    0.1173929991410416E-08   -0.5362321697788275E-11    0.7920782085779621E-12   -0.5587345031088375E-09
 -0.2409   0.6151    0.4833114248649364E-01    0.7776489963234856E-03   -0.3370217374270522E-05   -0.2014758676150562E+00   -0.7111044104200426E+00   -0.4191644099942554E-06    0.1170766533199752E-08   -0.7321712680585790E-11    0.7801537194040975E-12   -0.6906683974738925E-09
 -0.2490   0.5998    0.5212611742076882E-01    0.8495876454393793E-03   -0.1180687192019217E-05   -0.1359139324423224E+00   -0.7802909452664929E+00   -0.4573019922303349E-06    0.1165461259618195E-08   -0.8711156795904174E-11    0.7366893553517606E-12   -0.8033672754814702E-09
 -0.2578   0.5829    0.5493775499292874E-01    0.8656099683246450E-03    0.1476588843079925E-06   -0.7170771577822942E-01   -0.7990721740757003E+00   -0.4651525266876868E-06    0.1158479213329410E-08   -0.9217737684252825E-11    0.7007731932717406E-12   -0.8763179626392059E-09
 -0.2674   0.5646    0.5641496327666454E-01    0.8558903116830149E-03    0.2252233600817967E-06   -0.1197264204974630E-01   -0.7947288551816216E+00   -0.4590538092720737E-06    0.1150349377332296E-08   -0.8682561614126172E-11    0.6593365176749133E-12   -0.8878529855760320E-09
 -0.2778   0.5447    0.5636934132824217E-01    0.8676298101323904E-03   -0.8676310457133282E-06    0.4070287834035370E-01   -0.8103259584680421E+00   -0.4644555443032943E-06    0.1141246385154976E-08   -0.7151192398663353E-11    0.5914435607934365E-12   -0.8158707598404646E-09
 -0.2889   0.5236    0.5480314528696872E-01    0.9483189952609644E-03   -0.2759032024056149E-05    0.8460852946740927E-01   -0.8894382845118601E+00   -0.5069323635850866E-06    0.1130528948234399E-08   -0.4879395498758043E-11    0.5565443939037351E-12   -0.6400011076657108E-09
 -0.3006   0.5012    0.5187662725622081E-01    0.1131279080173531E-02   -0.4942901830875890E-05    0.1190995209659765E+00   -0.1062880458905065E+01   -0.6043794931340235E-06    0.1116158908354148E-08   -0.2211605898416735E-11    0.4799216579698395E-12   -0.3461826311723648E-09
 -0.3130   0.4776    0.4784129936257131E-01    0.1431999280083362E-02   -0.7104255025036945E-05    0.1446040492584229E+00   -0.1345161911741034E+01   -0.7650794122874297E-06    0.1095225883943063E-08    0.5819719706146032E-12    0.4367894934631522E-12    0.6588703194143619E-10
 -0.3259   0.4530    0.4298058412265474E-01    0.1853994149274182E-02   -0.9110178483806952E-05    0.1624445761859177E+00   -0.1739687553346106E+01   -0.9908955951610014E-06    0.1064592771576889E-08    0.3374696355695761E-11    0.3390066005692915E-12    0.5755738351209683E-09
 -0.3393   0.4275    0.3758171375118644E-01    0.2395913518569090E-02   -0.1096779201216983E-04    0.1744907500172407E+00   -0.2245193285296451E+01   -0.1281099400317408E-05    0.1022043050885602E-08    0.6123809792590862E-11    0.2156053113822054E-12    0.1140905137725357E-08
 -0.3531   0.4011    0.3193240267056935E-01    0.3053937832456607E-02   -0.1265374742543609E-04    0.1827275719866477E+00   -0.2857965248213452E+01   -0.1633682445535010E-05    0.9670018535912206E-09    0.8813505480986805E-11    0.1211114541987968E-12    0.1707302027184610E-08
 -0.3673   0.3739    0.2632719329444222E-01    0.3819993843393402E-02   -0.1411691247724057E-04    0.1888793962971322E+00   -0.3570248278405280E+01   -0.2044353872305904E-05    0.9007119806947461E-09    0.1143064809472349E-10    0.2799149800836176E-13    0.2222815485494745E-08
 -0.3819   0.3462    0.2107207466179347E-01    0.4679134121732401E-02   -0.1525162193441590E-04    0.1942081273416003E+00   -0.4367881124179494E+01   -0.2505162167142253E-05    0.8259302790303291E-09    0.1398511341454967E-10   -0.8171241461241152E-13    0.2651286839215356E-08
 -0.3966   0.3180    0.1648238813288095E-01    0.5608372455743141E-02   -0.1596704337124133E-04    0.1995064043886993E+00   -0.5229275757724724E+01   -0.3003812802464582E-05    0.7463454333722641E-09    0.1652324804757299E-10   -0.1993960552226781E-12    0.2977452797335578E-08
 -0.4116   0.2894    0.1287105723750168E-01    0.6577375607432190E-02   -0.1617642667282754E-04    0.2052129129954524E+00   -0.6126095976735731E+01   -0.3524084036221106E-05    0.6660067497499256E-09    0.1913373626205583E-10   -0.3092387457215295E-12    0.3203232796632899E-08
 -0.4267   0.2606    0.1052861886515450E-01    0.7550402045571615E-02   -0.1583528126175393E-04    0.2115528924541687E+00   -0.7025091450670389E+01   -0.4046802929278005E-05    0.5889443308038089E-09    0.2187278136389637E-10   -0.3589073482856975E-12    0.3340479670654872E-08
 -0.4419   0.2316    0.9698688512782754E-02    0.8488448162237254E-02   -0.1490470020736953E-04    0.2186441414967986E+00   -0.7890087567062195E+01   -0.4551059671588645E-05    0.5189058002730285E-09    0.2472277937926037E-10   -0.3990002772624734E-12    0.3404144621570182E-08
 -0.4571   0.2026    0.1055332503542053E-01    0.9350766622435613E-02   -0.1336041484106890E-04    0.2265565275926956E+00   -0.8683408204868188E+01   -0.5014951112835545E-05    0.4591610772153309E-09    0.2750233374371192E-10   -0.4315436896717983E-12    0.3408035314025892E-08
 -0.4722   0.1738    0.1316981346136835E-01    0.1009545878469113E-01   -0.1115436970314697E-04    0.2353379710816386E+00   -0.9366415698759543E+01   -0.5415974643664246E-05    0.4120262117601747E-09    0.2990124814417072E-10   -0.4193867475521529E-12    0.3364163903181450E-08
 -0.4872   0.1452    0.1750893596230598E-01    0.1067962428833019E-01   -0.8234684423660002E-05    0.2450226643741482E+00   -0.9899685074525637E+01   -0.5731021285820422E-05    0.3784960574126917E-09    0.3145639304591441E-10   -0.3604408438384610E-12    0.3282030805115688E-08
 -0.5020   0.1170    0.2339450257521214E-01    0.1106007850453095E-01   -0.4543141423916415E-05    0.2556315384738014E+00   -0.1024367387737561E+02   -0.5936847117667488E-05    0.3577230109352847E-09    0.3159983386069598E-10   -0.2739163063036898E-12    0.3168943829567894E-08
 -0.5165   0.0892    0.3049766723416072E-01    0.1119585744225210E-01   -0.7220714972292657E-07    0.2671697142809585E+00   -0.1036107975849757E+02   -0.6011316030020286E-05    0.3467303646211310E-09    0.2990246938949781E-10   -0.1191325683935762E-12    0.3031076098447549E-08
 -0.5307   0.0621    0.3833387704351558E-01    0.1105330808186791E-01    0.5099631660104566E-05    0.2796229810635623E+00   -0.1022150300714561E+02   -0.5936245219392777E-05    0.3404942092166685E-09    0.2603850468574365E-10    0.1587271980518778E-13    0.2872594535505146E-08
 -0.5446   0.0357    0.4628432707086838E-01    0.1061361967220353E-01    0.1074238424759060E-04    0.2929543984727061E+00   -0.9808357838390995E+01   -0.5701347543331796E-05    0.3326502823197686E-09    0.2007238819601298E-10    0.2172428903435275E-12    0.2698009328103157E-08
 -0.5580   0.0101    0.5365170823717844E-01    0.9881159653138688E-02    0.1646731592860700E-04    0.3071018422907317E+00   -0.9126394309855129E+01   -0.5308867248233617E-05    0.3168825375710060E-09    0.1246192038450999E-10    0.3385208779960180E-12    0.2510541054559501E-08
 -0.5709  -0.0145    0.5975088416274641E-01    0.8889638894797833E-02    0.2174567337340406E-04    0.3219770578299854E+00   -0.8207248666970784E+01   -0.4776783918818318E-05    0.2885920946660292E-09    0.4066413872294561E-11    0.4679173715160800E-12    0.2312383826086339E-08
 -0.5832  -0.0380    0.6401861617387845E-01    0.7702681074086399E-02    0.2601454930981163E-04    0.3374662499705003E+00   -0.7109777331876487E+01   -0.4139305024234417E-05    0.2462589437923768E-09   -0.4005629161696334E-11    0.5950517856234683E-12    0.2106689401051853E-08
 -0.5949  -0.0604    0.6611203727196954E-01    0.6406797358083503E-02    0.2880021322101352E-04    0.3534314266642171E+00   -0.5913581854634237E+01   -0.3442921336630850E-05    0.1920494804852346E-09   -0.1067806953969352E-10    0.6012135234101379E-12    0.1895386134501131E-08
 -0.6060  -0.0816    0.6596237624652654E-01    0.5097698073027491E-02    0.2984987993578649E-04    0.3697109449123841E+00   -0.4706419948417689E+01   -0.2739229911566641E-05    0.1310512670604780E-09   -0.1517419523366925E-10    0.6351585923880521E-12    0.1680952026877902E-08
 -0.6164  -0.1014    0.6376550030576418E-01    0.3864048988024098E-02    0.2918076617292352E-04    0.3861176059697681E+00   -0.3569481988054464E+01   -0.2075941627410384E-05    0.6971329069571652E-10   -0.1719238640340848E-10    0.6135369989834771E-12    0.1466318861470528E-08
 -0.6260  -0.1198    0.5991589025032784E-01    0.2773981346618552E-02    0.2705259114415544E-04    0.4024338418782429E+00   -0.2565069879641674E+01   -0.1489849117934676E-05    0.1393163362450878E-10   -0.1692024298449724E-10    0.5543898673465719E-12    0.1254411113177367E-08
 -0.6349  -0.1367    0.5491231727622359E-01    0.1868327653470869E-02    0.2385774990133541E-04    0.4184060972849450E+00   -0.1730566838552879E+01   -0.1002872796097993E-05   -0.3219865346570927E-10   -0.1492062029484487E-10    0.5020150961598802E-12    0.1048562648167661E-08
 -0.6429  -0.1520    0.4926834016548436E-01    0.1161262114873404E-02    0.1999751538918710E-04    0.4337433315335285E+00   -0.1078917187221458E+01   -0.6227511128494225E-06   -0.6699622107086967E-10   -0.1192392018456445E-10    0.5368899769209179E-12    0.8512587388459503E-09
 -0.6501  -0.1656    0.4345065617246988E-01    0.6461476961251584E-03    0.1578724864903449E-04    0.4481254557954785E+00   -0.6040570923883937E+00   -0.3457927307103448E-06   -0.9074110213225239E-10   -0.8631914085420467E-11    0.5054984208996416E-12    0.6668379702590155E-09
 -0.6563  -0.1776    0.3785057923555204E-01    0.3027518235396321E-03    0.1143313336845172E-04    0.4612245670240492E+00   -0.2872574069595537E+00   -0.1612741223337708E-06   -0.1051265983986749E-09   -0.5616375420292030E-11    0.5016542736768770E-12    0.4987453956772914E-09
 -0.6617  -0.1878    0.3277994617282783E-01    0.1026818352490660E-03    0.7108219801973428E-05    0.4727354656854563E+00   -0.1022272652858925E+00   -0.5378187336776740E-07   -0.1125631705900521E-09   -0.3263205677894732E-11    0.5060188379424346E-12    0.3510724723085334E-09
 -0.6661  -0.1962    0.2847504328936203E-01    0.1145223940349353E-04    0.3118476371910512E-05    0.4824056437486068E+00   -0.1671813606034670E-01   -0.5078443096698225E-08   -0.1158125253683528E-09   -0.1760109419324252E-11    0.5589209650658233E-12    0.2267055284818631E-09
 -0.6695  -0.2028    0.2509416983276386E-01   -0.1073415837058902E-04    0.6000113448261729E-07    0.4900533022925353E+00    0.6106994870056145E-02    0.6507763771495693E-08   -0.1173372976472770E-09   -0.1027067320080732E-11    0.5613309296548241E-12    0.1284404995555155E-09
 -0.6720  -0.2075    0.2270578233216677E-01   -0.5102659213527378E-05   -0.1205174822133318E-05    0.4955670777738054E+00    0.3994757422948246E-02    0.2806265951887383E-08   -0.1193967923661388E-09   -0.8046376065440342E-12    0.6245811159932835E-12    0.5715419630625274E-10
 -0.6735  -0.2103    0.2129178459777693E-01   -0.2180839131127296E-06   -0.2180311637750363E-06    0.4988903330269932E+00    0.7323529982638901E-03    0.1857467356639973E-09   -0.1222056584615841E-09   -0.4238405416565061E-12    0.4398525814408583E-12    0.1414423331062842E-10
 -0.6740  -0.2113    0.2082150500785743E-01    0.0000000000000000E+00    0.0000000000000000E+00    0.5000000000000000E+00   -0.4547055340876200E-04    0.0000000000000000E+00    0.0000000000000000E+00    0.0000000000000000E+00    0.0000000000000000E+00    0.0000000000000000E+00
 -0.2070   0.6730    0.2559237280090699E-01    0.0000000000000000E+00    0.0000000000000000E+00   -0.5000000000000000E+00   -0.4730173871512078E-02    0.0000000000000000E+00    0.0000000000000000E+00    0.0000000000000000E+00    0.0000000000000000E+00    0.0000000000000000E+00
 -0.2075   0.6720    0.2605303620338059E-01    0.2337454779716061E-05   -0.6933311180748248E-05   -0.4949794023356753E+00   -0.8737047692361645E-02   -0.3358926993964438E-08    0.1161443379839311E-08    0.7391805131309534E-12    0.9593753742820343E-12   -0.1197346876594813E-10
 -0.2090   0.6692    0.2740279735607691E-01    0.3775897652546293E-04   -0.3776263508036746E-04   -0.4799420755324036E+00   -0.2019298628854233E-01   -0.7326426236567360E-07    0.1163011617566490E-08    0.2150574965505136E-11    0.2441376961703767E-11   -0.4857184576420592E-10
 -0.2115   0.6645    0.2956904498894236E-01    0.1877123666642476E-03   -0.8409899397425583E-04   -0.4549801316141227E+00   -0.4860252679341806E-01   -0.4057974511432833E-06    0.1166036808775139E-08    0.2273373329864103E-11    0.3309449936317321E-11   -0.1095073719203921E-09
 -0.2149   0.6579    0.3248166791723487E-01    0.5322600117093727E-03   -0.1195890915875640E-03   -0.4203152936476554E+00   -0.1135666783532035E+00   -0.1181130789349963E-05    0.1169535329692550E-08   -0.2111505414958970E-13    0.3887487554088409E-11   -0.1936619371811776E-09
 -0.2193   0.6495    0.3605740953095848E-01    0.1076421643444531E-02   -0.1315998018660186E-03   -0.3764165950716937E+00   -0.2219682539755416E+00   -0.2396044676443070E-05    0.1172543735716847E-08   -0.4947875442695704E-11    0.4195872815859758E-11   -0.2999889260613120E-09
 -0.2247   0.6393    0.4014054545518320E-01    0.1741057464975932E-02   -0.1199675325299398E-03   -0.3241719009878931E+00   -0.3609447353639363E+00   -0.3864055937286517E-05    0.1174150290883524E-08   -0.1196234777900429E-10    0.4258930014211515E-11   -0.4241920772973806E-09
 -0.2309   0.6273    0.4447003621438386E-01    0.2398630307276090E-02   -0.9120956419467564E-04   -0.2650704586581208E+00   -0.5046278601041128E+00   -0.5299618219111937E-05    0.1173719517411076E-08   -0.1983920666637218E-10    0.4088201999152830E-11   -0.5584449638829092E-09
 -0.2381   0.6136    0.4868294266394034E-01    0.2921584896073598E-02   -0.5477943338921921E-04   -0.2013086049135465E+00   -0.6254664348278022E+00   -0.6422538323979124E-05    0.1171046596498693E-08   -0.2706299073729213E-10    0.3746111060243251E-11   -0.6902851623635797E-09