 title="result"
 variables="x","y","P","u","v","t","omega","psi","RES1","RES2","RES3","RES4"
zone,j= 49,i= 49,f=point
 -0.1830   0.6830    0.2419426478832796E-01    0.0000000000000000E+00    0.0000000000000000E+00   -0.5000000000000000E+00    0.0000000000000000E+00    0.0000000000000000E+00    0.0000000000000000E+00    0.0000000000000000E+00    0.0000000000000000E+00    0.0000000000000000E+00
 -0.1835   0.6821    0.2465556625030535E-01    0.0000000000000000E+00    0.0000000000000000E+00   -0.4948808629913988E+00    0.5483703730061615E-03    0.0000000000000000E+00    0.0000000000000000E+00    0.0000000000000000E+00    0.0000000000000000E+00    0.0000000000000000E+00
 -0.1852   0.6793    0.2597882062038069E-01    0.0000000000000000E+00    0.0000000000000000E+00   -0.4795486395220221E+00   -0.4894027676670943E-02    0.0000000000000000E+00    0.0000000000000000E+00    0.0000000000000000E+00    0.0000000000000000E+00    0.0000000000000000E+00
 -0.1878   0.6747    0.2808227642141413E-01    0.0000000000000000E+00    0.0000000000000000E+00   -0.4540990996831002E+00   -0.4891979443309458E-01    0.0000000000000000E+00    0.0000000000000000E+00    0.0000000000000000E+00    0.0000000000000000E+00    0.0000000000000000E+00
 -0.1915   0.6683    0.3094582810477061E-01    0.0000000000000000E+00    0.0000000000000000E+00   -0.4187648891760867E+00   -0.1561713833686171E+00    0.0000000000000000E+00    0.0000000000000000E+00    0.0000000000000000E+00    0.0000000000000000E+00    0.0000000000000000E+00
 -0.1963   0.6600    0.3452874905090731E-01    0.0000000000000000E+00    0.0000000000000000E+00   -0.3740419180466145E+00   -0.3221444350744720E+00    0.0000000000000000E+00    0.0000000000000000E+00    0.0000000000000000E+00    0.0000000000000000E+00    0.0000000000000000E+00
 -0.2020   0.6501    0.3869358829495782E-01    0.0000000000000000E+00    0.0000000000000000E+00   -0.3208747588633389E+00   -0.5193840837914535E+00    0.0000000000000000E+00    0.0000000000000000E+00    0.0000000000000000E+00    0.0000000000000000E+00    0.0000000000000000E+00
 -0.2088   0.6384    0.4317961223515966E-01    0.0000000000000000E+00    0.0000000000000000E+00   -0.2608517729145882E+00   -0.7084666746840586E+00    0.0000000000000000E+00    0.0000000000000000E+00    0.0000000000000000E+00    0.0000000000000000E+00    0.0000000000000000E+00
 -0.2165   0.6250    0.4760605095058897E-01    0.0000000000000000E+00    0.0000000000000000E+00   -0.1963082328832685E+00   -0.8516148686808941E+00    0.0000000000000000E+00    0.0000000000000000E+00    0.0000000000000000E+00    0.0000000000000000E+00    0.0000000000000000E+00
 -0.2251   0.6100    0.5151623515552096E-01    0.0000000000000000E+00    0.0000000000000000E+00   -0.1302292512500877E+00   -0.9262042179886152E+00    0.0000000000000000E+00    0.0000000000000000E+00    0.0000000000000000E+00    0.0000000000000000E+00    0.0000000000000000E+00
 -0.2347   0.5935    0.5445144509899209E-01    0.0000000000000000E+00    0.0000000000000000E+00   -0.6591735699791172E-01   -0.9351438787996179E+00    0.0000000000000000E+00    0.0000000000000000E+00    0.0000000000000000E+00    0.0000000000000000E+00    0.0000000000000000E+00
 -0.2451   0.5756    0.5604524706676988E-01    0.0000000000000000E+00    0.0000000000000000E+00   -0.6510332564591596E-02   -0.9090058124722374E+00    0.0000000000000000E+00    0.0000000000000000E+00    0.0000000000000000E+00    0.0000000000000000E+00    0.0000000000000000E+00
 -0.2562   0.5562    0.5610279226191176E-01    0.0000000000000000E+00    0.0000000000000000E+00    0.4548836553972287E-01   -0.8964610748164600E+00    0.0000000000000000E+00    0.0000000000000000E+00    0.0000000000000000E+00    0.0000000000000000E+00    0.0000000000000000E+00
 -0.2682   0.5355    0.5462977378472655E-01    0.0000000000000000E+00    0.0000000000000000E+00    0.8853192952961210E-01   -0.9466147697098984E+00    0.0000000000000000E+00    0.0000000000000000E+00    0.0000000000000000E+00    0.0000000000000000E+00    0.0000000000000000E+00
 -0.2808   0.5136    0.5179516888346428E-01    0.0000000000000000E+00    0.0000000000000000E+00    0.1221587433750835E+00   -0.1093723967311382E+01    0.0000000000000000E+00    0.0000000000000000E+00    0.0000000000000000E+00    0.0000000000000000E+00    0.0000000000000000E+00
 -0.2941   0.4906    0.4785804403555807E-01    0.0000000000000000E+00    0.0000000000000000E+00    0.1469398032418251E+00   -0.1353263913262933E+01    0.0000000000000000E+00    0.0000000000000000E+00    0.0000000000000000E+00    0.0000000000000000E+00    0.0000000000000000E+00
 -0.3080   0.4665    0.4310395906911545E-01    0.0000000000000000E+00    0.0000000000000000E+00    0.1642649995043514E+00   -0.1728081831418931E+01    0.0000000000000000E+00    0.0000000000000000E+00    0.0000000000000000E+00    0.0000000000000000E+00    0.0000000000000000E+00
 -0.3224   0.4415    0.3781668888562557E-01    0.0000000000000000E+00    0.0000000000000000E+00    0.1759971125216427E+00   -0.2216094872033872E+01    0.0000000000000000E+00    0.0000000000000000E+00    0.0000000000000000E+00    0.0000000000000000E+00    0.0000000000000000E+00
 -0.3373   0.4157    0.3227675755822926E-01    0.0000000000000000E+00    0.0000000000000000E+00    0.1840687973585002E+00   -0.2813254818326927E+01    0.0000000000000000E+00    0.0000000000000000E+00    0.0000000000000000E+00    0.0000000000000000E+00    0.0000000000000000E+00
 -0.3527   0.3892    0.2676965755746701E-01    0.0000000000000000E+00    0.0000000000000000E+00    0.1901422426943013E+00   -0.3512173298794345E+01    0.0000000000000000E+00    0.0000000000000000E+00    0.0000000000000000E+00    0.0000000000000000E+00    0.0000000000000000E+00
 -0.3683   0.3621    0.2159158127537348E-01    0.0000000000000000E+00    0.0000000000000000E+00    0.1954311521560173E+00   -0.4299681206875179E+01    0.0000000000000000E+00    0.0000000000000000E+00    0.0000000000000000E+00    0.0000000000000000E+00    0.0000000000000000E+00
 -0.3842   0.3345    0.1704837992619351E-01    0.0000000000000000E+00    0.0000000000000000E+00    0.2007002878682480E+00   -0.5155610925872359E+01    0.0000000000000000E+00    0.0000000000000000E+00    0.0000000000000000E+00    0.0000000000000000E+00    0.0000000000000000E+00
 -0.4004   0.3065    0.1344521545570804E-01    0.0000000000000000E+00    0.0000000000000000E+00    0.2063759271779394E+00   -0.6053223139724770E+01    0.0000000000000000E+00    0.0000000000000000E+00    0.0000000000000000E+00    0.0000000000000000E+00    0.0000000000000000E+00
 -0.4167   0.2783    0.1106841807317483E-01    0.0000000000000000E+00    0.0000000000000000E+00    0.2126790807572438E+00   -0.6960778026449809E+01    0.0000000000000000E+00    0.0000000000000000E+00    0.0000000000000000E+00    0.0000000000000000E+00    0.0000000000000000E+00
 -0.4330   0.2500    0.1016274445964893E-01    0.0000000000000000E+00    0.0000000000000000E+00    0.2197265112017980E+00   -0.7843317725661770E+01    0.0000000000000000E+00    0.0000000000000000E+00    0.0000000000000000E+00    0.0000000000000000E+00    0.0000000000000000E+00
 -0.4494   0.2217    0.1090814100351889E-01    0.0000000000000000E+00    0.0000000000000000E+00    0.2275880148128613E+00   -0.8663904361296987E+01    0.0000000000000000E+00    0.0000000000000000E+00    0.0000000000000000E+00    0.0000000000000000E+00    0.0000000000000000E+00
 -0.4656   0.1935    0.1339722832604010E-01    0.0000000000000000E+00    0.0000000000000000E+00    0.2363117588612927E+00   -0.9383989568635201E+01    0.0000000000000000E+00    0.0000000000000000E+00    0.0000000000000000E+00    0.0000000000000000E+00    0.0000000000000000E+00
 -0.4818   0.1655    0.1761330825657005E-01    0.0000000000000000E+00    0.0000000000000000E+00    0.2459324347869948E+00   -0.9963333317628370E+01    0.0000000000000000E+00    0.0000000000000000E+00    0.0000000000000000E+00    0.0000000000000000E+00    0.0000000000000000E+00
 -0.4977   0.1379    0.2340832334048941E-01    0.0000000000000000E+00    0.0000000000000000E+00    0.2564717790633420E+00   -0.1036039171050277E+02    0.0000000000000000E+00    0.0000000000000000E+00    0.0000000000000000E+00    0.0000000000000000E+00    0.0000000000000000E+00
 -0.5134   0.1108    0.3048385343448989E-01    0.0000000000000000E+00    0.0000000000000000E+00    0.2679360522257053E+00   -0.1053438739018747E+02    0.0000000000000000E+00    0.0000000000000000E+00    0.0000000000000000E+00    0.0000000000000000E+00    0.0000000000000000E+00
 -0.5287   0.0843    0.3838289878644652E-01    0.0000000000000000E+00    0.0000000000000000E+00    0.2803124791637635E+00   -0.1044994243656086E+02    0.0000000000000000E+00    0.0000000000000000E+00    0.0000000000000000E+00    0.0000000000000000E+00    0.0000000000000000E+00
 -0.5436   0.0585    0.4650483837159988E-01    0.0000000000000000E+00    0.0000000000000000E+00    0.2935657395373449E+00   -0.1008434904669822E+02    0.0000000000000000E+00    0.0000000000000000E+00    0.0000000000000000E+00    0.0000000000000000E+00    0.0000000000000000E+00
 -0.5580   0.0335    0.5415512028760567E-01    0.0000000000000000E+00    0.0000000000000000E+00    0.3076353444793953E+00   -0.9436081556565023E+01    0.0000000000000000E+00    0.0000000000000000E+00    0.0000000000000000E+00    0.0000000000000000E+00    0.0000000000000000E+00
 -0.5719   0.0094    0.6063273676741519E-01    0.0000000000000000E+00    0.0000000000000000E+00    0.3224345097482047E+00   -0.8531740435813463E+01    0.0000000000000000E+00    0.0000000000000000E+00    0.0000000000000000E+00    0.0000000000000000E+00    0.0000000000000000E+00
 -0.5852  -0.0136    0.6534195779807274E-01    0.0000000000000000E+00    0.0000000000000000E+00    0.3378506257065129E+00   -0.7427885309941559E+01    0.0000000000000000E+00    0.0000000000000000E+00    0.0000000000000000E+00    0.0000000000000000E+00    0.0000000000000000E+00
 -0.5978  -0.0355    0.6789817319662403E-01    0.0000000000000000E+00    0.0000000000000000E+00    0.3537466104714141E+00   -0.6205376656688806E+01    0.0000000000000000E+00    0.0000000000000000E+00    0.0000000000000000E+00    0.0000000000000000E+00    0.0000000000000000E+00
 -0.6098  -0.0562    0.6819208108152974E-01    0.0000000000000000E+00    0.0000000000000000E+00    0.3699616157366962E+00   -0.4956618208730974E+01    0.0000000000000000E+00    0.0000000000000000E+00    0.0000000000000000E+00    0.0000000000000000E+00    0.0000000000000000E+00
 -0.6210  -0.0756    0.6638936895753174E-01    0.0000000000000000E+00    0.0000000000000000E+00    0.3863093601696673E+00   -0.3769484414484644E+01    0.0000000000000000E+00    0.0000000000000000E+00    0.0000000000000000E+00    0.0000000000000000E+00    0.0000000000000000E+00
 -0.6314  -0.0935    0.6286923959690087E-01    0.0000000000000000E+00    0.0000000000000000E+00    0.4025734687262723E+00   -0.2713259898377630E+01    0.0000000000000000E+00    0.0000000000000000E+00    0.0000000000000000E+00    0.0000000000000000E+00    0.0000000000000000E+00
 -0.6409  -0.1100    0.5812889796078643E-01    0.0000000000000000E+00    0.0000000000000000E+00    0.4185017458663646E+00   -0.1830962679703100E+01    0.0000000000000000E+00    0.0000000000000000E+00    0.0000000000000000E+00    0.0000000000000000E+00    0.0000000000000000E+00
 -0.6495  -0.1250    0.5268936934750008E-01    0.0000000000000000E+00    0.0000000000000000E+00    0.4338042587110681E+00   -0.1139137436510150E+01    0.0000000000000000E+00    0.0000000000000000E+00    0.0000000000000000E+00    0.0000000000000000E+00    0.0000000000000000E+00
 -0.6572  -0.1384    0.4702821529315366E-01    0.0000000000000000E+00    0.0000000000000000E+00    0.4481612222326756E+00   -0.6332469254075017E+00    0.0000000000000000E+00    0.0000000000000000E+00    0.0000000000000000E+00    0.0000000000000000E+00    0.0000000000000000E+00
 -0.6640  -0.1501    0.4154728118673084E-01    0.0000000000000000E+00    0.0000000000000000E+00    0.4612438878930241E+00   -0.2947995715720494E+00    0.0000000000000000E+00    0.0000000000000000E+00    0.0000000000000000E+00    0.0000000000000000E+00    0.0000000000000000E+00
 -0.6697  -0.1600    0.3656694287959215E-01    0.0000000000000000E+00    0.0000000000000000E+00    0.4727451929804958E+00   -0.9700717436738257E-01    0.0000000000000000E+00    0.0000000000000000E+00    0.0000000000000000E+00    0.0000000000000000E+00    0.0000000000000000E+00
 -0.6745  -0.1683    0.3233080096916144E-01    0.0000000000000000E+00    0.0000000000000000E+00    0.4824103321119700E+00   -0.6968899321211325E-02    0.0000000000000000E+00    0.0000000000000000E+00    0.0000000000000000E+00    0.0000000000000000E+00    0.0000000000000000E+00
 -0.6782  -0.1747    0.2900412191208829E-01    0.0000000000000000E+00    0.0000000000000000E+00    0.4900554820498473E+00    0.1360406193579854E-01    0.0000000000000000E+00    0.0000000000000000E+00    0.0000000000000000E+00    0.0000000000000000E+00    0.0000000000000000E+00
 -0.6809  -0.1793    0.2666242511213424E-01    0.0000000000000000E+00    0.0000000000000000E+00    0.4955679666625392E+00    0.5748122893159127E-02    0.0000000000000000E+00    0.0000000000000000E+00    0.0000000000000000E+00    0.0000000000000000E+00    0.0000000000000000E+00
 -0.6825  -0.1821    0.2528180422628670E-01    0.0000000000000000E+00    0.0000000000000000E+00    0.4988905506246512E+00   -0.3798464031980833E-04    0.0000000000000000E+00    0.0000000000000000E+00    0.0000000000000000E+00    0.0000000000000000E+00    0.0000000000000000E+00
 -0.6830  -0.1830    0.2482248088512491E-01    0.0000000000000000E+00    0.0000000000000000E+00    0.5000000000000000E+00    0.0000000000000000E+00    0.0000000000000000E+00    0.0000000000000000E+00    0.0000000000000000E+00    0.0000000000000000E+00    0.0000000000000000E+00
 -0.1821   0.6825    0.2446178147204579E-01    0.0000000000000000E+00    0.0000000000000000E+00   -0.5000000000000000E+00    0.5490120244994526E-03    0.0000000000000000E+00    0.0000000000000000E+00    0.0000000000000000E+00    0.0000000000000000E+00    0.0000000000000000E+00
 -0.1826   0.6816    0.2492171398580820E-01   -0.4373483063761654E-07    0.4411108876325955E-07   -0.4948806999821931E+00   -0.7266640601507851E-03    0.4814392399029506E-10    0.3477179528468474E-09   -0.7812890959191243E-12   -0.8013104069171106E-12    0.1490634395431845E-10
 -0.1842   0.6788    0.2624771271815120E-01    0.7440629454569907E-05   -0.2561291175803851E-05   -0.4795479759878932E+00   -0.9581303157862051E-02   -0.3572915905238483E-08    0.3422313986020664E-09   -0.1441392144529985E-11   -0.1168816779473225E-11    0.5921368950723149E-10
 -0.1869   0.6742    0.2835665029757030E-01    0.5303704396236439E-04   -0.6476883769223726E-05   -0.4540975318305785E+00   -0.5047896198965417E-01   -0.2833509361613849E-07    0.3370480526621034E-09   -0.1290793427005665E-11   -0.1153133144526919E-11    0.1331878704546874E-09
 -0.1906   0.6677    0.3121510051540909E-01    0.1630031812712220E-03   -0.9163160661456500E-05   -0.4187619004099546E+00   -0.1486132272075153E+00   -0.8797306812051799E-07    0.3336291520827928E-09   -0.7421112335759261E-12   -0.1158656504074429E-11    0.2372791615967706E-09
 -0.1954   0.6595    0.3477811112344364E-01    0.3348141254615429E-03   -0.1004130786845079E-04   -0.3740369348782083E+00   -0.3035162598245398E+00   -0.1810038730009372E-06    0.3316163801891925E-09   -0.2361305595499630E-13   -0.1147373862586676E-11    0.3713995153087346E-09
 -0.2011   0.6495    0.3890980104821275E-01    0.5407793657968049E-03   -0.9017415377462923E-05   -0.3208673082893350E+00   -0.4910282327800282E+00   -0.2921491183470734E-06    0.3308986591676888E-09    0.5516698209362403E-12   -0.1166851337774943E-11    0.5360895061201632E-09
 -0.2079   0.6378    0.4335253443396128E-01    0.7399664395350884E-03   -0.6752673806014563E-05   -0.2608416841127885E+00   -0.6740412375216055E+00   -0.3993561043658738E-06    0.3304491125177833E-09    0.7069067553544528E-12   -0.1096765039898528E-11    0.7320081624184738E-09
 -0.2156   0.6245    0.4773049421459272E-01    0.8926187502097710E-03   -0.3890091096583043E-05   -0.1962957861501769E+00   -0.8160786172383051E+00   -0.4811645053706612E-06    0.3289515560986334E-09    0.2385452946285227E-12   -0.1120173398483360E-11    0.9589929406139674E-09
 -0.2242   0.6095    0.5159250247458810E-01    0.9746092900894395E-03   -0.1296634278509636E-05   -0.1302151788977915E+00   -0.8946656464991430E+00   -0.5246804635995224E-06    0.3244894639445328E-09   -0.9712647353055104E-12   -0.1061465151885876E-11    0.1216791778446691E-08
 -0.2337   0.5930    0.5448517314945642E-01    0.9885139756967210E-03    0.3644985686096895E-06   -0.6590267574612262E-01   -0.9117123156336402E+00   -0.5313521729276245E-06    0.3148446357141912E-09   -0.2970935997215207E-11   -0.1029666803209484E-11    0.1500607318960512E-08
 -0.2441   0.5750    0.5604571923050400E-01    0.9660092486099317E-03    0.6499417729608276E-06   -0.6496092506441973E-02   -0.8958093539512074E+00   -0.5183370792564177E-06    0.2972566815091782E-09   -0.5718044093772079E-11   -0.9980696824563040E-12    0.1799576224148502E-08
 -0.2553   0.5557    0.5608043136609221E-01    0.9579808894860593E-03   -0.3592251725228796E-06    0.4550128804410438E-01   -0.8933533626286503E+00   -0.5130799811011679E-06    0.2690421996515494E-09   -0.9002860956730530E-11   -0.9698275169056636E-12    0.2092235260042763E-08
 -0.2672   0.5350    0.5459370165765239E-01    0.1016067602640140E-02   -0.2259292517008536E-05    0.8854292862961183E-01   -0.9517062707518416E+00   -0.5433905321302574E-06    0.2281870283005194E-09   -0.1248364606132313E-10   -0.9196081396378730E-12    0.2345535835002188E-08
 -0.2799   0.5131    0.5175212739109395E-01    0.1176561933425698E-02   -0.4490069625688468E-05    0.1221674956782438E+00   -0.1104420103743882E+01   -0.6287638119854011E-06    0.1741782777037182E-09   -0.1575830785305321E-10   -0.9263909084289423E-12    0.2518571670662162E-08
 -0.2932   0.4900    0.4781261782938786E-01    0.1456082310714876E-02   -0.6698453888490226E-05    0.1469462516851456E+00   -0.1367069191958012E+01   -0.7780828971926798E-06    0.1079913623802664E-09   -0.1849642661255757E-10   -0.8715771160350272E-12    0.2572384492915969E-08
 -0.3071   0.4660    0.4305931799448141E-01    0.1857840776540883E-02   -0.8730846193523952E-05    0.1642693291184695E+00   -0.1742811163242461E+01   -0.9930447237809163E-06    0.3191416228509603E-10   -0.2042041535865735E-10   -0.8621853231360888E-12    0.2483238805556232E-08
 -0.3215   0.4410    0.3777496527630508E-01    0.2379645569517842E-02   -0.1059691112383627E-04    0.1759996976998377E+00   -0.2229634388856238E+01   -0.1272460865806258E-05   -0.5099241168204927E-10   -0.2126623876996803E-10   -0.7491299247597283E-12    0.2252591585483188E-08
 -0.3364   0.4152    0.3223904187993428E-01    0.3017041427516094E-02   -0.1228162901320889E-04    0.1840701067661601E+00   -0.2823262136614253E+01   -0.1613978725375554E-05   -0.1374277878996022E-09   -0.2074077715130684E-10   -0.6766878724029368E-12    0.1908316581145098E-08
 -0.3517   0.3887    0.2673590280313461E-01    0.3761913076091343E-02   -0.1374796752248525E-04    0.1901427269592637E+00   -0.3515921525517385E+01   -0.2013278898048622E-05   -0.2240718235957395E-09   -0.1852257930368140E-10   -0.6294131882356169E-12    0.1495048898483148E-08
 -0.3674   0.3615    0.2156067283024247E-01    0.4599964248494763E-02   -0.1490013364619323E-04    0.1954311610906241E+00   -0.4294070492382019E+01   -0.2462758213478084E-05   -0.3076123869516501E-09   -0.1441030107740549E-10   -0.5459244167838051E-12    0.1059348358925342E-08
 -0.3833   0.3339    0.1701834393854772E-01    0.5509477422973775E-02   -0.1565691695202615E-04    0.2007000445244252E+00   -0.5137305498121633E+01   -0.2950799457807087E-05   -0.3845362812893161E-09   -0.8343221946649493E-11   -0.4830996713778291E-12    0.6396586645779356E-09
 -0.3995   0.3060    0.1341348406842907E-01    0.6461814018512468E-02   -0.1593501135425597E-04    0.2063755488316667E+00   -0.6018859878047770E+01   -0.3462092394765700E-05   -0.4509718293244092E-09   -0.5264400027016336E-12   -0.3941846848931618E-12    0.2594507824728309E-09
 -0.4157   0.2778    0.1103205817285869E-01    0.7423110787621342E-02   -0.1569199634957822E-04    0.2126786173541992E+00   -0.6907213046152089E+01   -0.3978472351103210E-05   -0.5026489814652368E-09    0.8612777158134577E-11   -0.3338856968682080E-12   -0.6993625557144556E-10
 -0.4321   0.2495    0.1011859152162044E-01    0.8356188572922618E-02   -0.1488612421761723E-04    0.2197259781619662E+00   -0.7767860212310586E+01   -0.4480014485055785E-05   -0.5353783978645499E-09    0.1848460273734531E-10   -0.2706168622523819E-12   -0.3449551651268923E-09
 -0.4484   0.2211    0.1085282752524592E-01    0.9221869348965663E-02   -0.1348975209851391E-04    0.2275874128734456E+00   -0.8564550618852453E+01   -0.4945661554313862E-05   -0.5455989098013259E-09    0.2841887836169121E-10   -0.2218294992140102E-12   -0.5674927134116659E-09
 -0.4647   0.1929    0.1332711600642517E-01    0.9979379601140806E-02   -0.1144711235041949E-04    0.2363110836656624E+00   -0.9259653482254759E+01   -0.5353523445884722E-05   -0.5308967467032577E-09    0.3776839951896704E-10   -0.1821529038714687E-12   -0.7405822101402837E-09
 -0.4809   0.1650    0.1752441363156176E-01    0.1058628384090976E-01   -0.8696335805741115E-05    0.2459316809977579E+00   -0.9814135728693913E+01   -0.5680746232987466E-05   -0.4904377286230055E-09    0.4594896685361505E-10   -0.1605937605120289E-12   -0.8683492137145921E-09
 -0.4968   0.1374    0.2329630768327289E-01    0.1099893106372067E-01   -0.5162560813775019E-05    0.2564709422187144E+00   -0.1018798515543154E+02   -0.5903844722495886E-05   -0.4251593486992444E-09    0.5248523837764196E-10   -0.1547165173754195E-12   -0.9546571068386189E-09
 -0.5124   0.1103    0.3034422048932609E-01    0.1117467427547957E-01   -0.8170973885186813E-06    0.2679351297619814E+00   -0.1034231300011630E+02   -0.5999782748026541E-05   -0.3377749930883606E-09    0.5708677974780585E-10   -0.1685561412667624E-12   -0.1003984678379921E-08
 -0.5278   0.0838    0.3821143816131542E-01    0.1107677498970873E-01    0.4287843869747338E-05    0.2803114709630949E+00   -0.1024385434238193E+02   -0.5948724651425430E-05   -0.2327375150240618E-09    0.5947642378600904E-10   -0.1818302453049370E-12   -0.1020077102648065E-08
 -0.5427   0.0579    0.4629836757470029E-01    0.1068202975159572E-01    0.9946212836520690E-05    0.2935646478897754E+00   -0.9871978587513503E+01   -0.5738018847480139E-05   -0.1159538819128780E-09    0.5959510662734147E-10   -0.2250075126219997E-12   -0.1007617213624745E-08
 -0.5571   0.0330    0.5391234152447607E-01    0.9989636693917973E-02    0.1578459223109639E-04    0.3076341732486378E+00   -0.9226704462017954E+01   -0.5367126145024576E-05    0.5641567074610165E-11    0.5746225717473408E-10   -0.2264577414479163E-12   -0.9703737292865444E-09
 -0.5710   0.0089    0.6035501449976051E-01    0.9028343558089924E-02    0.2127065102624934E-04    0.3224332627279521E+00   -0.8335151894322262E+01   -0.4851344545898480E-05    0.1247440553631129E-09    0.5329775509821388E-10   -0.2651906472195265E-12   -0.9134134351662659E-09
 -0.5843  -0.0141    0.6503361073945503E-01    0.7858214140138780E-02    0.2581629765511496E-04    0.3378493046363821E+00   -0.7252960480207887E+01   -0.4222957689706975E-05    0.2346914676487621E-09    0.4749611814958143E-10   -0.2338268467738658E-12   -0.8411601623570242E-09
 -0.5969  -0.0360    0.6756613766916710E-01    0.6564570647153686E-02    0.2890372993936097E-04    0.3537452138189122E+00   -0.6058685284053137E+01   -0.3527805333478473E-05    0.3302942572225298E-09    0.4062050695807784E-10   -0.2091937734149951E-12   -0.7586789061569954E-09
 -0.6089  -0.0567    0.6784485695229907E-01    0.5244592085035218E-02    0.3023029571440892E-04    0.3699601398152870E+00   -0.4841454095579631E+01   -0.2818273652248985E-05    0.4086253904689308E-09    0.3332778497622257E-10   -0.2013389455157721E-12   -0.6700512453911012E-09
 -0.6200  -0.0761    0.6603568115522686E-01    0.3990518923812871E-02    0.2977197053988665E-04    0.3863078039475592E+00   -0.3685736595500354E+01   -0.2143995525895039E-05    0.4690906205140344E-09    0.2618757988237519E-10   -0.2114419750398611E-12   -0.5792935679760358E-09
 -0.6304  -0.0941    0.6251673851633201E-01    0.2875018851867210E-02    0.2776706705543421E-04    0.4025718423481608E+00   -0.2657979525959811E+01   -0.1544212520868479E-05    0.5130106686679348E-09    0.1967412344150432E-10   -0.1905142710256769E-12   -0.4896775901430672E-09
 -0.6400  -0.1106    0.5778346109756941E-01    0.1943205217811430E-02    0.2460845598678721E-04    0.4185000805239139E+00   -0.1799475712068845E+01   -0.1043149961384901E-05    0.5429289517966396E-09    0.1407417238308284E-10   -0.1570688024088440E-12   -0.4041153071898673E-09
 -0.6486  -0.1255    0.5235494657058181E-01    0.1212443088236686E-02    0.2071291734173486E-04    0.4338026130398471E+00   -0.1126084731392625E+01   -0.6502705536536588E-06    0.5618611409463625E-09    0.9509483478442604E-11   -0.1809385974382849E-12   -0.3246802167400364E-09
 -0.6563  -0.1389    0.4670731051694592E-01    0.6779348797921410E-03    0.1641748479728269E-04    0.4481596797046346E+00   -0.6334300183116942E+00   -0.3628690385963941E-06    0.5727253393761345E-09    0.5977760170541857E-11   -0.1769001611862109E-12   -0.2520140294365314E-09
 -0.6631  -0.1506    0.4124140459526601E-01    0.3201207569459292E-03    0.1194558453614243E-04    0.4612425422060680E+00   -0.3034013925911729E+00   -0.1705890013055335E-06    0.5780468360916391E-09    0.3408950205452399E-11   -0.2167224733007345E-12   -0.1872580424056025E-09
 -0.6688  -0.1606    0.3627690111707169E-01    0.1104843665712697E-03    0.7483082541060479E-05    0.4727441239879752E+00   -0.1095962169898954E+00   -0.5794398123112875E-07    0.5799369682396582E-09    0.1720037307029187E-11   -0.2220376660311274E-12   -0.1312263570377170E-09
 -0.6736  -0.1688    0.3205591103747778E-01    0.1390318898702991E-04    0.3343724577684635E-05    0.4824095808334311E+00   -0.1916672101997953E-01   -0.6363810320445922E-08    0.5802015447947673E-09    0.7863744377889503E-12   -0.2453315328665440E-12   -0.8465848855276903E-10
 -0.6773  -0.1752    0.2874063218672380E-01   -0.1045549660250548E-04    0.1447231244260200E-06    0.4900550361241152E+00    0.5693469924041958E-02    0.6386876504722394E-08    0.5801771031915121E-09    0.4167499678686681E-12   -0.2599743337272642E-12   -0.4777939155431454E-10
 -0.6799  -0.1798    0.2640118040659260E-01   -0.5201217906022203E-05   -0.1216451087944172E-05    0.4955677640674672E+00    0.4020629151825190E-02    0.2867757538537324E-08    0.5808701269548883E-09    0.3461614675459579E-12   -0.2818270790350130E-12   -0.2127007706249906E-10
 -0.6816  -0.1826    0.2501818583008010E-01   -0.2279808835066845E-06   -0.2278746558898207E-06    0.4988904997156121E+00    0.7506204529062713E-03    0.1942403508003339E-09    0.5821300858889489E-09    0.2095901577292558E-12   -0.2090385156638952E-12   -0.5156428452626760E-11
 -0.6821  -0.1835    0.2455856577981690E-01    0.0000000000000000E+00    0.0000000000000000E+00    0.5000000000000000E+00   -0.3780676352228542E-04    0.0000000000000000E+00    0.0000000000000000E+00    0.0000000000000000E+00    0.0000000000000000E+00    0.0000000000000000E+00
 -0.1793   0.6809    0.2529346584602101E-01    0.0000000000000000E+00    0.0000000000000000E+00   -0.5000000000000000E+00   -0.4888175245217849E-02    0.0000000000000000E+00    0.0000000000000000E+00    0.0000000000000000E+00    0.0000000000000000E+00    0.0000000000000000E+00
 -0.1798   0.6799    0.2574244954452863E-01    0.2559556452284945E-05   -0.7437236884782044E-05   -0.4948782929870592E+00   -0.9580320431452065E-02   -0.3570611858947180E-08    0.3426948828877396E-09   -0.1139043449404492E-11   -0.1538759571151349E-11    0.1472776306292445E-10
 -0.1814   0.6772    0.2705611441611561E-01    0.4191303321654197E-04   -0.4191605262768718E-04   -0.4795382247529944E+00   -0.2287551976472558E-01   -0.8044537807612330E-07    0.3404658083239198E-09   -0.3242972351161916E-11   -0.3790346508880660E-11    0.5925580078697257E-10
 -0.1841   0.6726    0.2916239158230808E-01    0.2107394767923508E-03   -0.9499301130390824E-04   -0.4540747542469759E+00   -0.5532651523004935E-01   -0.4537182346869275E-06    0.3368368708955849E-09   -0.3888604716006938E-11   -0.4750467380576495E-11    0.1331564997153478E-09
 -0.1878   0.6661    0.3200113351614015E-01    0.6026194303548437E-03   -0.1364835239767408E-03   -0.4187190227936201E+00   -0.1294445334022435E+00   -0.1334849737175300E-05    0.3335568141138445E-09   -0.2661079689936230E-11   -0.5056066676445425E-11    0.2371811844148475E-09
 -0.1926   0.6579    0.3550814144195358E-01    0.1225972415731423E-02   -0.1511816451194437E-03   -0.3739659993525252E+00   -0.2535963107000649E+00   -0.2726536520200635E-05    0.3313916641101144E-09   -0.5686284776373896E-12   -0.4973174649869350E-11    0.3711680476858881E-09
 -0.1983   0.6479    0.3954647795910184E-01    0.1990865578917519E-02   -0.1383755020934832E-03   -0.3207614917783544E+00   -0.4132511112594886E+00   -0.4416760081139085E-05    0.3301752204976083E-09    0.1160571638791907E-11   -0.4722618129893164E-11    0.5357975660369441E-09
 -0.2051   0.6362    0.4386605906265904E-01    0.2749332849884674E-02   -0.1053613793460375E-03   -0.2606981285845347E+00   -0.5784097246558763E+00   -0.6074242545204103E-05    0.3291576386454942E-09    0.1389846571164810E-11   -0.4379104717733284E-11    0.7317361855330162E-09
 -0.2128   0.6229    0.4810455309254297E-01    0.3351345057413802E-02   -0.6294344792361698E-04   -0.1961178702875299E+00   -0.7166311712529377E+00   -0.7369546244580356E-05    0.3269783749315636E-09   -0.6947081798713839E-12   -0.4022913946410966E-11    0.9589507798946073E-09