 title="result"
 variables="x","y","P","u","v","t","omega","psi","RES1","RES2","RES3","RES4"
zone,j= 49,i= 49,f=point
 -0.1830   0.6830    0.2431350961131038E-01    0.0000000000000000E+00    0.0000000000000000E+00   -0.5000000000000000E+00    0.0000000000000000E+00    0.0000000000000000E+00    0.0000000000000000E+00    0.0000000000000000E+00    0.0000000000000000E+00    0.0000000000000000E+00
 -0.1835   0.6821    0.2477480459852048E-01    0.0000000000000000E+00    0.0000000000000000E+00   -0.4948861872197218E+00    0.5494107670226230E-03    0.0000000000000000E+00    0.0000000000000000E+00    0.0000000000000000E+00    0.0000000000000000E+00    0.0000000000000000E+00
 -0.1852   0.6793    0.2609812194318134E-01    0.0000000000000000E+00    0.0000000000000000E+00   -0.4795699058014631E+00   -0.4919035701556241E-02    0.0000000000000000E+00    0.0000000000000000E+00    0.0000000000000000E+00    0.0000000000000000E+00    0.0000000000000000E+00
 -0.1878   0.6747    0.2820194409002380E-01    0.0000000000000000E+00    0.0000000000000000E+00   -0.4541467854066980E+00   -0.4905574820666671E-01    0.0000000000000000E+00    0.0000000000000000E+00    0.0000000000000000E+00    0.0000000000000000E+00    0.0000000000000000E+00
 -0.1915   0.6683    0.3106633891488675E-01    0.0000000000000000E+00    0.0000000000000000E+00   -0.4188490576737169E+00   -0.1564835738052735E+00    0.0000000000000000E+00    0.0000000000000000E+00    0.0000000000000000E+00    0.0000000000000000E+00    0.0000000000000000E+00
 -0.1963   0.6600    0.3465055403972490E-01    0.0000000000000000E+00    0.0000000000000000E+00   -0.3741716022512233E+00   -0.3226061415262854E+00    0.0000000000000000E+00    0.0000000000000000E+00    0.0000000000000000E+00    0.0000000000000000E+00    0.0000000000000000E+00
 -0.2020   0.6501    0.3881702094975517E-01    0.0000000000000000E+00    0.0000000000000000E+00   -0.3210567727711935E+00   -0.5198615755147096E+00    0.0000000000000000E+00    0.0000000000000000E+00    0.0000000000000000E+00    0.0000000000000000E+00    0.0000000000000000E+00
 -0.2088   0.6384    0.4330489927020130E-01    0.0000000000000000E+00    0.0000000000000000E+00   -0.2610888484620841E+00   -0.7087415795348776E+00    0.0000000000000000E+00    0.0000000000000000E+00    0.0000000000000000E+00    0.0000000000000000E+00    0.0000000000000000E+00
 -0.2165   0.6250    0.4773337541022102E-01    0.0000000000000000E+00    0.0000000000000000E+00   -0.1965968051107654E+00   -0.8514305083400272E+00    0.0000000000000000E+00    0.0000000000000000E+00    0.0000000000000000E+00    0.0000000000000000E+00    0.0000000000000000E+00
 -0.2251   0.6100    0.5164575200213139E-01    0.0000000000000000E+00    0.0000000000000000E+00   -0.1305578021889696E+00   -0.9253262444010903E+00    0.0000000000000000E+00    0.0000000000000000E+00    0.0000000000000000E+00    0.0000000000000000E+00    0.0000000000000000E+00
 -0.2347   0.5935    0.5458319554451589E-01    0.0000000000000000E+00    0.0000000000000000E+00   -0.6626653083844133E-01   -0.9334305993230605E+00    0.0000000000000000E+00    0.0000000000000000E+00    0.0000000000000000E+00    0.0000000000000000E+00    0.0000000000000000E+00
 -0.2451   0.5756    0.5617899325386796E-01    0.0000000000000000E+00    0.0000000000000000E+00   -0.6855602683255977E-02   -0.9064700740673588E+00    0.0000000000000000E+00    0.0000000000000000E+00    0.0000000000000000E+00    0.0000000000000000E+00    0.0000000000000000E+00
 -0.2562   0.5562    0.5623784009617814E-01    0.0000000000000000E+00    0.0000000000000000E+00    0.4517182048543797E-01   -0.8932908223901005E+00    0.0000000000000000E+00    0.0000000000000000E+00    0.0000000000000000E+00    0.0000000000000000E+00    0.0000000000000000E+00
 -0.2682   0.5355    0.5476481933087406E-01    0.0000000000000000E+00    0.0000000000000000E+00    0.8826367313009127E-01   -0.9431355246201600E+00    0.0000000000000000E+00    0.0000000000000000E+00    0.0000000000000000E+00    0.0000000000000000E+00    0.0000000000000000E+00
 -0.2808   0.5136    0.5192819292580999E-01    0.0000000000000000E+00    0.0000000000000000E+00    0.1219489127627192E+00   -0.1090335157261201E+01    0.0000000000000000E+00    0.0000000000000000E+00    0.0000000000000000E+00    0.0000000000000000E+00    0.0000000000000000E+00
 -0.2941   0.4906    0.4798633029938094E-01    0.0000000000000000E+00    0.0000000000000000E+00    0.1467879151357652E+00   -0.1350405257454483E+01    0.0000000000000000E+00    0.0000000000000000E+00    0.0000000000000000E+00    0.0000000000000000E+00    0.0000000000000000E+00
 -0.3080   0.4665    0.4322432617360478E-01    0.0000000000000000E+00    0.0000000000000000E+00    0.1641620460985375E+00   -0.1726247568160941E+01    0.0000000000000000E+00    0.0000000000000000E+00    0.0000000000000000E+00    0.0000000000000000E+00    0.0000000000000000E+00
 -0.3224   0.4415    0.3792591854288409E-01    0.0000000000000000E+00    0.0000000000000000E+00    0.1759298008771401E+00   -0.2215859720658282E+01    0.0000000000000000E+00    0.0000000000000000E+00    0.0000000000000000E+00    0.0000000000000000E+00    0.0000000000000000E+00
 -0.3373   0.4157    0.3237209424843009E-01    0.0000000000000000E+00    0.0000000000000000E+00    0.1840239474714750E+00   -0.2815269603189768E+01    0.0000000000000000E+00    0.0000000000000000E+00    0.0000000000000000E+00    0.0000000000000000E+00    0.0000000000000000E+00
 -0.3527   0.3892    0.2684926853593556E-01    0.0000000000000000E+00    0.0000000000000000E+00    0.1901096497057088E+00   -0.3517120755699274E+01    0.0000000000000000E+00    0.0000000000000000E+00    0.0000000000000000E+00    0.0000000000000000E+00    0.0000000000000000E+00
 -0.3683   0.3621    0.2165494302992957E-01    0.0000000000000000E+00    0.0000000000000000E+00    0.1954043767706985E+00   -0.4308206394152231E+01    0.0000000000000000E+00    0.0000000000000000E+00    0.0000000000000000E+00    0.0000000000000000E+00    0.0000000000000000E+00
 -0.3842   0.3345    0.1709657942443834E-01    0.0000000000000000E+00    0.0000000000000000E+00    0.2006759769037478E+00   -0.5168244051681357E+01    0.0000000000000000E+00    0.0000000000000000E+00    0.0000000000000000E+00    0.0000000000000000E+00    0.0000000000000000E+00
 -0.4004   0.3065    0.1348112536666713E-01    0.0000000000000000E+00    0.0000000000000000E+00    0.2063526587001893E+00   -0.6070309493342421E+01    0.0000000000000000E+00    0.0000000000000000E+00    0.0000000000000000E+00    0.0000000000000000E+00    0.0000000000000000E+00
 -0.4167   0.2783    0.1109668862670638E-01    0.0000000000000000E+00    0.0000000000000000E+00    0.2126564131253078E+00   -0.6982425825016187E+01    0.0000000000000000E+00    0.0000000000000000E+00    0.0000000000000000E+00    0.0000000000000000E+00    0.0000000000000000E+00
 -0.4330   0.2500    0.1018957715233522E-01    0.0000000000000000E+00    0.0000000000000000E+00    0.2197044237105522E+00   -0.7869368023451232E+01    0.0000000000000000E+00    0.0000000000000000E+00    0.0000000000000000E+00    0.0000000000000000E+00    0.0000000000000000E+00
 -0.4494   0.2217    0.1094084688658511E-01    0.0000000000000000E+00    0.0000000000000000E+00    0.2275666459195578E+00   -0.8693920052667305E+01    0.0000000000000000E+00    0.0000000000000000E+00    0.0000000000000000E+00    0.0000000000000000E+00    0.0000000000000000E+00
 -0.4656   0.1935    0.1344360037611066E-01    0.0000000000000000E+00    0.0000000000000000E+00    0.2362912998644182E+00   -0.9417257296705920E+01    0.0000000000000000E+00    0.0000000000000000E+00    0.0000000000000000E+00    0.0000000000000000E+00    0.0000000000000000E+00
 -0.4818   0.1655    0.1768084748568069E-01    0.0000000000000000E+00    0.0000000000000000E+00    0.2459130864347862E+00   -0.9998875044014715E+01    0.0000000000000000E+00    0.0000000000000000E+00    0.0000000000000000E+00    0.0000000000000000E+00    0.0000000000000000E+00
 -0.4977   0.1379    0.2350336824509251E-01    0.0000000000000000E+00    0.0000000000000000E+00    0.2564537294930492E+00   -0.1039699004512695E+02    0.0000000000000000E+00    0.0000000000000000E+00    0.0000000000000000E+00    0.0000000000000000E+00    0.0000000000000000E+00
 -0.5134   0.1108    0.3061069208812413E-01    0.0000000000000000E+00    0.0000000000000000E+00    0.2679194624152898E+00   -0.1057063671240869E+02    0.0000000000000000E+00    0.0000000000000000E+00    0.0000000000000000E+00    0.0000000000000000E+00    0.0000000000000000E+00
 -0.5287   0.0843    0.3854299973439373E-01    0.0000000000000000E+00    0.0000000000000000E+00    0.2802974734779852E+00   -0.1048434125430114E+02    0.0000000000000000E+00    0.0000000000000000E+00    0.0000000000000000E+00    0.0000000000000000E+00    0.0000000000000000E+00
 -0.5436   0.0585    0.4669640051584447E-01    0.0000000000000000E+00    0.0000000000000000E+00    0.2935524028901366E+00   -0.1011544312381944E+02    0.0000000000000000E+00    0.0000000000000000E+00    0.0000000000000000E+00    0.0000000000000000E+00    0.0000000000000000E+00
 -0.5580   0.0335    0.5437316271364855E-01    0.0000000000000000E+00    0.0000000000000000E+00    0.3076237282329560E+00   -0.9462649248622391E+01    0.0000000000000000E+00    0.0000000000000000E+00    0.0000000000000000E+00    0.0000000000000000E+00    0.0000000000000000E+00
 -0.5719   0.0094    0.6086986615394908E-01    0.0000000000000000E+00    0.0000000000000000E+00    0.3224246465314993E+00   -0.8552984884146158E+01    0.0000000000000000E+00    0.0000000000000000E+00    0.0000000000000000E+00    0.0000000000000000E+00    0.0000000000000000E+00
 -0.5852  -0.0136    0.6558974019223587E-01    0.0000000000000000E+00    0.0000000000000000E+00    0.3378425487350217E+00   -0.7443575365249434E+01    0.0000000000000000E+00    0.0000000000000000E+00    0.0000000000000000E+00    0.0000000000000000E+00    0.0000000000000000E+00
 -0.5978  -0.0355    0.6814876977775589E-01    0.0000000000000000E+00    0.0000000000000000E+00    0.3537403666479366E+00   -0.6215877990910212E+01    0.0000000000000000E+00    0.0000000000000000E+00    0.0000000000000000E+00    0.0000000000000000E+00    0.0000000000000000E+00
 -0.6098  -0.0562    0.6843963942128309E-01    0.0000000000000000E+00    0.0000000000000000E+00    0.3699572574787288E+00   -0.4962788427081698E+01    0.0000000000000000E+00    0.0000000000000000E+00    0.0000000000000000E+00    0.0000000000000000E+00    0.0000000000000000E+00
 -0.6210  -0.0756    0.6663073255897881E-01    0.0000000000000000E+00    0.0000000000000000E+00    0.3863069047105503E+00   -0.3772459666845087E+01    0.0000000000000000E+00    0.0000000000000000E+00    0.0000000000000000E+00    0.0000000000000000E+00    0.0000000000000000E+00
 -0.6314  -0.0935    0.6310383343438944E-01    0.0000000000000000E+00    0.0000000000000000E+00    0.4025728301574947E+00   -0.2714204948407089E+01    0.0000000000000000E+00    0.0000000000000000E+00    0.0000000000000000E+00    0.0000000000000000E+00    0.0000000000000000E+00
 -0.6409  -0.1100    0.5835799129107083E-01    0.0000000000000000E+00    0.0000000000000000E+00    0.4185026699020123E+00   -0.1830864401249078E+01    0.0000000000000000E+00    0.0000000000000000E+00    0.0000000000000000E+00    0.0000000000000000E+00    0.0000000000000000E+00
 -0.6495  -0.1250    0.5291510275944322E-01    0.0000000000000000E+00    0.0000000000000000E+00    0.4338063055791836E+00   -0.1138691814765553E+01    0.0000000000000000E+00    0.0000000000000000E+00    0.0000000000000000E+00    0.0000000000000000E+00    0.0000000000000000E+00
 -0.6572  -0.1384    0.4725274553059382E-01    0.0000000000000000E+00    0.0000000000000000E+00    0.4481638288160790E+00   -0.6328447878127589E+00    0.0000000000000000E+00    0.0000000000000000E+00    0.0000000000000000E+00    0.0000000000000000E+00    0.0000000000000000E+00
 -0.6640  -0.1501    0.4177222592585691E-01    0.0000000000000000E+00    0.0000000000000000E+00    0.4612464953451568E+00   -0.2945832800609879E+00    0.0000000000000000E+00    0.0000000000000000E+00    0.0000000000000000E+00    0.0000000000000000E+00    0.0000000000000000E+00
 -0.6697  -0.1600    0.3679314605182830E-01    0.0000000000000000E+00    0.0000000000000000E+00    0.4727473806369060E+00   -0.9696008822046033E-01    0.0000000000000000E+00    0.0000000000000000E+00    0.0000000000000000E+00    0.0000000000000000E+00    0.0000000000000000E+00
 -0.6745  -0.1683    0.3255835614399188E-01    0.0000000000000000E+00    0.0000000000000000E+00    0.4824118918280575E+00   -0.7006574859424132E-02    0.0000000000000000E+00    0.0000000000000000E+00    0.0000000000000000E+00    0.0000000000000000E+00    0.0000000000000000E+00
 -0.6782  -0.1747    0.2923259523771347E-01    0.0000000000000000E+00    0.0000000000000000E+00    0.4900564076506401E+00    0.1356135350988783E-01    0.0000000000000000E+00    0.0000000000000000E+00    0.0000000000000000E+00    0.0000000000000000E+00    0.0000000000000000E+00
 -0.6809  -0.1793    0.2689122205633433E-01    0.0000000000000000E+00    0.0000000000000000E+00    0.4955683867753758E+00    0.5732993284954957E-02    0.0000000000000000E+00    0.0000000000000000E+00    0.0000000000000000E+00    0.0000000000000000E+00    0.0000000000000000E+00
 -0.6825  -0.1821    0.2551060303476340E-01    0.0000000000000000E+00    0.0000000000000000E+00    0.4988906562331282E+00   -0.3833114026080012E-04    0.0000000000000000E+00    0.0000000000000000E+00    0.0000000000000000E+00    0.0000000000000000E+00    0.0000000000000000E+00
 -0.6830  -0.1830    0.2505126212725328E-01    0.0000000000000000E+00    0.0000000000000000E+00    0.5000000000000000E+00    0.0000000000000000E+00    0.0000000000000000E+00    0.0000000000000000E+00    0.0000000000000000E+00    0.0000000000000000E+00    0.0000000000000000E+00
 -0.1821   0.6825    0.2458103522984804E-01    0.0000000000000000E+00    0.0000000000000000E+00   -0.5000000000000000E+00    0.5500530166700714E-03    0.0000000000000000E+00    0.0000000000000000E+00    0.0000000000000000E+00    0.0000000000000000E+00    0.0000000000000000E+00
 -0.1826   0.6816    0.2504096269594840E-01   -0.4315125421993956E-07    0.4352785606548889E-07   -0.4948860246013478E+00   -0.7301010211345014E-03    0.4771731510268556E-10    0.3458057108891854E-09   -0.8010783876521987E-12   -0.8116059907470330E-12    0.1437876488881440E-10
 -0.1842   0.6788    0.2636702611533093E-01    0.7469387192226557E-05   -0.2569648767703108E-05   -0.4795692438584764E+00   -0.9611362397554410E-02   -0.3587714560928711E-08    0.3403201314505777E-09   -0.1437535854242888E-11   -0.1188597831269789E-11    0.5924397170758988E-10
 -0.1869   0.6742    0.2847631701260814E-01    0.5317403463624890E-04   -0.6490070859051625E-05   -0.4541452213530986E+00   -0.5059907541336402E-01   -0.2841021086521430E-07    0.3351483326974325E-09   -0.1295096191747391E-11   -0.1156286871806245E-11    0.1334087545296070E-09
 -0.1906   0.6677    0.3133558443495027E-01    0.1633141286693172E-03   -0.9174739654409150E-05   -0.4188460763779615E+00   -0.1488821877000865E+00   -0.8814344418704833E-07    0.3317272637137769E-09   -0.7413687719282080E-12   -0.1173561248180022E-11    0.2370546051122524E-09
 -0.1954   0.6595    0.3489987035376040E-01    0.3352738617102254E-03   -0.1004648557652532E-04   -0.3741666321294323E+00   -0.3039134269412143E+00   -0.1812561460307372E-06    0.3297236927934932E-09   -0.2200323256928982E-13   -0.1151127804188690E-11    0.3706585247065242E-09
 -0.2011   0.6495    0.3903318566110864E-01    0.5412509449772685E-03   -0.9013572875055092E-05   -0.3210493426341389E+00   -0.4914318455949154E+00   -0.2924084466877254E-06    0.3290064297389872E-09    0.5613842724017104E-12   -0.1111985503676749E-11    0.5353781654116041E-09
 -0.2079   0.6378    0.4347779026231626E-01    0.7402232274346813E-03   -0.6739796700211547E-05   -0.2610787882306604E+00   -0.6742461506511451E+00   -0.3995002456465995E-06    0.3285795299040606E-09    0.7222555886698956E-12   -0.1113987374568026E-11    0.7308723903864944E-09
 -0.2156   0.6245    0.4785781860473773E-01    0.8923928016188402E-03   -0.3869827653306028E-05   -0.1965843937679799E+00   -0.8158410634063528E+00   -0.4810485580290550E-06    0.3271084436304306E-09    0.2586819647376615E-12   -0.1086911810554980E-11    0.9576202192329575E-09
 -0.2242   0.6095    0.5172205665894457E-01    0.9736557507551933E-03   -0.1272220088600914E-05   -0.1305437683573383E+00   -0.8937624522669260E+00   -0.5241725023550730E-06    0.3227058394811300E-09   -0.9485190410885025E-12   -0.1056502975382845E-11    0.1214869857490974E-08
 -0.2337   0.5930    0.5461699565384608E-01    0.9866855398821960E-03    0.3888222834500637E-06   -0.6625188594551110E-01   -0.9100100379091308E+00   -0.5303723946247837E-06    0.3131344121715465E-09   -0.2948072341801833E-11   -0.1072228352112792E-11    0.1498162691127014E-08
 -0.2441   0.5750    0.5617956211776740E-01    0.9633215042515038E-03    0.6696711142813969E-06   -0.6841391558682666E-02   -0.8933241827152835E+00   -0.5168936424014771E-06    0.2956631170360907E-09   -0.5694791860300086E-11   -0.9962889888082138E-12    0.1796628276706791E-08
 -0.2553   0.5557    0.5621558532053177E-01    0.9546342833419727E-03   -0.3474045926509708E-06    0.4518472500256931E-01   -0.8902718355448049E+00   -0.5112801845338839E-06    0.2676076517500736E-09   -0.8985300350983216E-11   -0.9607020040602876E-12    0.2088810985290124E-08
 -0.2672   0.5350    0.5472884702007718E-01    0.1012408708951380E-02   -0.2256827588605204E-05    0.8827466593686614E-01   -0.9483502613844266E+00   -0.5414203299129173E-06    0.2269626266440672E-09   -0.1247670716741922E-10   -0.9335171524682551E-12    0.2341770985458957E-08
 -0.2799   0.5131    0.5188523500897807E-01    0.1173016999388720E-02   -0.4496998598017550E-05    0.1219576684497188E+00   -0.1101186524752700E+01   -0.6268515078738271E-06    0.1731489934070352E-09   -0.1576726249563620E-10   -0.9043356341553732E-12    0.2514627721328377E-08
 -0.2932   0.4900    0.4794097212799125E-01    0.1453121487558839E-02   -0.6714791944641827E-05    0.1467943728191146E+00   -0.1364396640225641E+01   -0.7764803388607943E-06    0.1071932629465033E-09   -0.1852307890404248E-10   -0.8619563396372598E-12    0.2568281476378331E-08
 -0.3071   0.4660    0.4317974801305480E-01    0.1855991889392603E-02   -0.8757248302052111E-05    0.1641663866630414E+00   -0.1741191531567696E+01   -0.9920345930239062E-06    0.3132705206354558E-10   -0.2046963987201167E-10   -0.8445188992567410E-12    0.2478911943770701E-08
 -0.3215   0.4410    0.3788426717672892E-01    0.2379520188688289E-02   -0.1063439505358246E-04    0.1759323955997781E+00   -0.2229635484795593E+01   -0.1272371243922206E-05   -0.5137371777985678E-10   -0.2133899307255049E-10   -0.7812084312774914E-12    0.2248244423963541E-08
 -0.3364   0.4152    0.3233447231906388E-01    0.3019329278232661E-02   -0.1233073762879010E-04    0.1840252635852865E+00   -0.2825521717299136E+01   -0.1615179984973637E-05   -0.1376255706619922E-09   -0.2081976258061502E-10   -0.6942779684493416E-12    0.1903791941801347E-08
 -0.3517   0.3887    0.2681563536485094E-01    0.3767334636187757E-02   -0.1380826049756649E-04    0.1901101378802859E+00   -0.3521102839126610E+01   -0.2016158603839925E-05   -0.2241387422885488E-09   -0.1861848696049773E-10   -0.6391970286401261E-12    0.1490121838421121E-08
 -0.3674   0.3615    0.2162418361550260E-01    0.4609196674249638E-02   -0.1496995385562159E-04    0.1954043876113521E+00   -0.4302793571474642E+01   -0.2467681159145008E-05   -0.3075972011823414E-09   -0.1448921538305115E-10   -0.5583727924474147E-12    0.1054305648210199E-08
 -0.3833   0.3339    0.1706671364975553E-01    0.5523072836940633E-02   -0.1573350674028995E-04    0.2006757343221950E+00   -0.5150071594646888E+01   -0.2958063991591383E-05   -0.3845008478275957E-09   -0.8406685070294628E-11   -0.4764105776544625E-12    0.6345739923113713E-09
 -0.3995   0.3060    0.1344957484583858E-01    0.6480125870639273E-02   -0.1601472318105146E-04    0.2063522805673466E+00   -0.6035984040143228E+01   -0.3471890544680803E-05   -0.4509314865952518E-09   -0.5655892421074782E-12   -0.4082151283668622E-12    0.2544487099319370E-09
 -0.4157   0.2778    0.1106050724299215E-01    0.7446239668292665E-02   -0.1577065598629952E-04    0.2126559496976050E+00   -0.6928774963904748E+01   -0.3990860731253033E-05   -0.5026259373985820E-09    0.8617856428472237E-11   -0.3415462357381216E-12   -0.7493734018731990E-10
 -0.4321   0.2495    0.1014558640541199E-01    0.8383951644491417E-02   -0.1495928425273227E-04    0.2197038905390627E+00   -0.7793677272502391E+01   -0.4494897441692717E-05   -0.5353918766659582E-09    0.1853692199738077E-10   -0.2888522754318501E-12   -0.3497510961403272E-09
 -0.4484   0.2211    0.1088566527648333E-01    0.9253790064784755E-02   -0.1355289197570321E-04    0.2275660437897795E+00   -0.8594169622875420E+01   -0.4962785589293675E-05   -0.5456072017795410E-09    0.2851929803426856E-10   -0.2140440602538263E-12   -0.5719272703000322E-09
 -0.4647   0.1929    0.1337357618659853E-01    0.1001469110492722E-01   -0.1149567109438690E-04    0.2362906244394620E+00   -0.9292355156757122E+01   -0.5372478604218937E-05   -0.5308450068408632E-09    0.3791256197871462E-10   -0.1819516759482553E-12   -0.7446972734651003E-09
 -0.4809   0.1650    0.1759198497910492E-01    0.1062394266234925E-01   -0.8725804755946873E-05    0.2459123323914826E+00   -0.9848948673809119E+01   -0.5700973388634451E-05   -0.4902596627276434E-09    0.4612787929403339E-10   -0.1504629754123243E-12   -0.8720673566955939E-09
 -0.4968   0.1374    0.2339131873003225E-01    0.1103764545906243E-01   -0.5168675771077702E-05    0.2564528923862811E+00   -0.1022371353114080E+02   -0.5924650341745701E-05   -0.4247854932387662E-09    0.5271255654193396E-10   -0.1491202994419183E-12   -0.9579905861645255E-09
 -0.5124   0.1103    0.3047095364862613E-01    0.1121295975858966E-01   -0.7963831661273009E-06    0.2679185397020748E+00   -0.1037758908265421E+02   -0.6020368661458774E-05   -0.3371559383676809E-09    0.5732142538406038E-10   -0.1785754703831355E-12   -0.1006799508346257E-08
 -0.5278   0.0838    0.3837136364800282E-01    0.1111305290659411E-01    0.4337237124975522E-05    0.2802964650634922E+00   -0.1027723039542199E+02   -0.5968240678468699E-05   -0.2318227103337289E-09    0.5971934058379702E-10   -0.2049124758762844E-12   -0.1022841797371221E-08
 -0.5427   0.0579    0.4648969642616252E-01    0.1071477827840357E-01    0.1002341113586643E-04    0.2935513110853123E+00   -0.9902065760840163E+01   -0.5755644217627995E-05   -0.1147206600549122E-09    0.5981271034016800E-10   -0.2123717868229846E-12   -0.1009688742337200E-08
 -0.5571   0.0330    0.5413011749402198E-01    0.1001758461478236E-01    0.1588510978411124E-04    0.3076225569141669E+00   -0.9252349545599994E+01   -0.5382173840880846E-05    0.7169275589857804E-11    0.5766886967961682E-10   -0.2114003416764376E-12   -0.9725725919063066E-09
 -0.5710   0.0089    0.6059188024714742E-01    0.9050669492285824E-02    0.2138615107605038E-04    0.3224233994916644E+00   -0.8355617239762056E+01   -0.4863369321100175E-05    0.1265062499200553E-09    0.5345279774360279E-10   -0.2314953784221530E-12   -0.9151929682843507E-09
 -0.5843  -0.0141    0.6528117420834155E-01    0.7874690792759452E-02    0.2593555624155055E-04    0.3378412277001933E+00   -0.7268052640089352E+01   -0.4231834231141781E-05    0.2365826423655903E-09    0.4761618876969465E-10   -0.2590289094328568E-12   -0.8429313861496590E-09
 -0.5969  -0.0360    0.6781659845293658E-01    0.6575593982900140E-02    0.2901471758688516E-04    0.3537389700708791E+00   -0.6068778306968020E+01   -0.3533744854023967E-05    0.3322691080609452E-09    0.4071254444681927E-10   -0.2153832667772804E-12   -0.7598707808809113E-09
 -0.6089  -0.0567    0.6809238764420379E-01    0.5251069314267459E-02    0.3032286304222604E-04    0.3699557816802288E+00   -0.4847385238138856E+01   -0.2821763621187006E-05    0.4105948706034646E-09    0.3336009246623917E-10   -0.1647015857031420E-12   -0.6712581896578529E-09
 -0.6200  -0.0761    0.6627712994055442E-01    0.3993644717173940E-02    0.2984002267246585E-04    0.3863053487135480E+00   -0.3688601532505113E+01   -0.2145679339339369E-05    0.4709972134531171E-09    0.2619696126693327E-10   -0.1972588759002747E-12   -0.5801037289421274E-09
 -0.6304  -0.0941    0.6275151421521245E-01    0.2876014711778035E-02    0.2780948958979123E-04    0.4025712042156769E+00   -0.2658895498174655E+01   -0.1544748446417512E-05    0.5148544021671420E-09    0.1967184748430384E-10   -0.1962319196024964E-12   -0.4907666183162629E-09
 -0.6400  -0.1106    0.5801280086640420E-01    0.1943104777439627E-02    0.2462849186641180E-04    0.4185010053377883E+00   -0.1799386803445862E+01   -0.1043095435466568E-05    0.5447091944166260E-09    0.1406198768538758E-10   -0.1691563555894504E-12   -0.4052001355975277E-09
 -0.6486  -0.1255    0.5258095142703859E-01    0.1211974968029328E-02    0.2071660027332410E-04    0.4338046611086820E+00   -0.1125656182169346E+01   -0.6500183968970471E-06    0.5635984248741899E-09    0.9497153063975361E-11   -0.1735833699001432E-12   -0.3252711103934880E-09
 -0.6563  -0.1389    0.4693209767188166E-01    0.6775083887878379E-03    0.1641175846665525E-04    0.4481622878654564E+00   -0.6330356006346827E+00   -0.3626400928153159E-06    0.5744287094600065E-09    0.5968193604252714E-11   -0.1847549890854339E-12   -0.2525496357180801E-09
 -0.6631  -0.1506    0.4146655854011818E-01    0.3198855495814870E-03    0.1193682868562263E-04    0.4612451514156652E+00   -0.3031783971959098E+00   -0.1704636987217490E-06    0.5797376745331206E-09    0.3401164766492215E-11   -0.1935396287677804E-12   -0.1874639367349662E-09
 -0.6688  -0.1606    0.3650324267951215E-01    0.1104243907043151E-03    0.7476062827460668E-05    0.4727463132950066E+00   -0.1095312112263130E+00   -0.5791361877078240E-07    0.5816294182392490E-09    0.1723003684173108E-11   -0.2177286129168010E-12   -0.1314411938665994E-09
 -0.6736  -0.1688    0.3228352627459421E-01    0.1393230781149880E-04    0.3341021763469215E-05    0.4824111418369765E+00   -0.1918340723744916E-01   -0.6381270787697648E-08    0.5819047613556116E-09    0.7819925262886329E-12   -0.2424276057677588E-12   -0.8453198904745385E-10
 -0.6773  -0.1752    0.2896910132072656E-01   -0.1041771882385024E-04    0.1462917330416417E-06    0.4900559625311768E+00    0.5665806716960217E-02    0.6365140610664474E-08    0.5818808245026778E-09    0.4215204574276044E-12   -0.2775735370719179E-12   -0.4779087889317246E-10
 -0.6799  -0.1798    0.2662995355570434E-01   -0.5187190271140157E-05   -0.1213205658758145E-05    0.4955681845533368E+00    0.4009244672308036E-02    0.2860018924823594E-08    0.5825837275704598E-09    0.3381721985773467E-12   -0.2925476701165497E-12   -0.2145466031396037E-10
 -0.6816  -0.1826    0.2524696710878964E-01   -0.2271933954826075E-06   -0.2270860353396463E-06    0.4988906054180443E+00    0.7486697241103949E-03    0.1936927711814328E-09    0.5838352756977472E-09    0.2018887986475482E-12   -0.1961686021956233E-12   -0.5392863510356866E-11
 -0.6821  -0.1835    0.2478732952984500E-01    0.0000000000000000E+00    0.0000000000000000E+00    0.5000000000000000E+00   -0.3815341812725084E-04    0.0000000000000000E+00    0.0000000000000000E+00    0.0000000000000000E+00    0.0000000000000000E+00    0.0000000000000000E+00
 -0.1793   0.6809    0.2541269356143635E-01    0.0000000000000000E+00    0.0000000000000000E+00   -0.5000000000000000E+00   -0.4913179667033816E-02    0.0000000000000000E+00    0.0000000000000000E+00    0.0000000000000000E+00    0.0000000000000000E+00    0.0000000000000000E+00
 -0.1798   0.6799    0.2586167902057724E-01    0.2567915331154826E-05   -0.7465995625693273E-05   -0.4948836234045863E+00   -0.9610385011117935E-02   -0.3585410305236048E-08    0.3407862811388718E-09   -0.1124500137645625E-11   -0.1543955935323638E-11    0.1500922021217821E-10
 -0.1814   0.6772    0.2717542142062682E-01    0.4202426323831562E-04   -0.4202726373221549E-04   -0.4795595161608562E+00   -0.2291810971028938E-01   -0.8069054079988992E-07    0.3385713480408281E-09   -0.3251489626588527E-11   -0.3790490490929166E-11    0.5916693177066001E-10
 -0.1841   0.6726    0.2928203617643758E-01    0.2111883140265810E-03   -0.9516969737241591E-04   -0.4541224994027220E+00   -0.5540635108816193E-01   -0.4547711512466337E-06    0.3349318947187818E-09   -0.3893494901485717E-11   -0.4759113242380764E-11    0.1331191996911674E-09
 -0.1878   0.6661    0.3212154562999215E-01    0.6036144941047355E-03   -0.1366439144007915E-03   -0.4188033065342000E+00   -0.1295996479547631E+00   -0.1337206183510837E-05    0.3316659655250298E-09   -0.2658272907352099E-11   -0.5053645002472962E-11    0.2368887551396082E-09
 -0.1926   0.6579    0.3562978678116360E-01    0.1227435798970988E-02   -0.1512503767909168E-03   -0.3740958824089267E+00   -0.2538193617054899E+00   -0.2730012752646173E-05    0.3294935990716397E-09   -0.5578246198290060E-12   -0.4978538414857070E-11    0.3707090051596751E-09
 -0.1983   0.6479    0.3966974601480530E-01    0.1992315638091310E-02   -0.1383121383058166E-03   -0.3209438148694790E+00   -0.4134524450900781E+00   -0.4420265118146428E-05    0.3282946137161957E-09    0.1195016308130903E-11   -0.4736905312441309E-11    0.5348597745258310E-09
 -0.2051   0.6362    0.4399124597417964E-01    0.2749944706995796E-02   -0.1051617485391502E-03   -0.2609356348392949E+00   -0.5784226041733833E+00   -0.6075937060420475E-05    0.3272872250992265E-09    0.1442179708988078E-11   -0.4380888013466588E-11    0.7307631375019774E-09
 -0.2128   0.6229    0.4823189671564899E-01    0.3350127903480207E-02   -0.6263227199334509E-04   -0.1964069752908288E+00   -0.7162494490624619E+00   -0.7367235329427483E-05    0.3251507500745543E-09   -0.6265127305837837E-12   -0.4035875800223465E-11    0.9573800641149433E-09