 title="result"
 variables="x","y","P","u","v","t","omega","psi","RES1","RES2","RES3","RES4"
zone,j= 49,i= 49,f=point
 -0.4519   0.5438    0.2404185742130888E-01    0.0000000000000000E+00    0.0000000000000000E+00   -0.5000000000000000E+00    0.0000000000000000E+00    0.0000000000000000E+00    0.0000000000000000E+00    0.0000000000000000E+00    0.0000000000000000E+00    0.0000000000000000E+00
 -0.4520   0.5428    0.2457053912237397E-01    0.0000000000000000E+00    0.0000000000000000E+00   -0.4960723068988649E+00   -0.2536544359239832E-03    0.0000000000000000E+00    0.0000000000000000E+00    0.0000000000000000E+00    0.0000000000000000E+00    0.0000000000000000E+00
 -0.4523   0.5396    0.2614320762627215E-01    0.0000000000000000E+00    0.0000000000000000E+00   -0.4843076707900278E+00   -0.4353471436990799E-02    0.0000000000000000E+00    0.0000000000000000E+00    0.0000000000000000E+00    0.0000000000000000E+00    0.0000000000000000E+00
 -0.4528   0.5343    0.2871474881172672E-01    0.0000000000000000E+00    0.0000000000000000E+00   -0.4647709187757012E+00   -0.6647964475347755E-02    0.0000000000000000E+00    0.0000000000000000E+00    0.0000000000000000E+00    0.0000000000000000E+00    0.0000000000000000E+00
 -0.4535   0.5269    0.3215679111549546E-01    0.0000000000000000E+00    0.0000000000000000E+00   -0.4375998712128688E+00    0.9569217362903934E-02    0.0000000000000000E+00    0.0000000000000000E+00    0.0000000000000000E+00    0.0000000000000000E+00    0.0000000000000000E+00
 -0.4544   0.5174    0.3623134402912072E-01    0.0000000000000000E+00    0.0000000000000000E+00   -0.4030421043331242E+00    0.5665853133128333E-01    0.0000000000000000E+00    0.0000000000000000E+00    0.0000000000000000E+00    0.0000000000000000E+00    0.0000000000000000E+00
 -0.4554   0.5059    0.4062439883772279E-01    0.0000000000000000E+00    0.0000000000000000E+00   -0.3614935163748415E+00    0.1348641287820463E+00    0.0000000000000000E+00    0.0000000000000000E+00    0.0000000000000000E+00    0.0000000000000000E+00    0.0000000000000000E+00
 -0.4567   0.4925    0.4498066550416906E-01    0.0000000000000000E+00    0.0000000000000000E+00   -0.3135397969108230E+00    0.2317090295016999E+00    0.0000000000000000E+00    0.0000000000000000E+00    0.0000000000000000E+00    0.0000000000000000E+00    0.0000000000000000E+00
 -0.4581   0.4771    0.4893939587931591E-01    0.0000000000000000E+00    0.0000000000000000E+00   -0.2600155725095122E+00    0.3246488651971017E+00    0.0000000000000000E+00    0.0000000000000000E+00    0.0000000000000000E+00    0.0000000000000000E+00    0.0000000000000000E+00
 -0.4597   0.4599    0.5216536066755481E-01    0.0000000000000000E+00    0.0000000000000000E+00   -0.2020982206729091E+00    0.3858829204949411E+00    0.0000000000000000E+00    0.0000000000000000E+00    0.0000000000000000E+00    0.0000000000000000E+00    0.0000000000000000E+00
 -0.4614   0.4410    0.5437567070196008E-01    0.0000000000000000E+00    0.0000000000000000E+00   -0.1414320746369857E+00    0.3881051232218845E+00    0.0000000000000000E+00    0.0000000000000000E+00    0.0000000000000000E+00    0.0000000000000000E+00    0.0000000000000000E+00
 -0.4633   0.4203    0.5535883562057398E-01    0.0000000000000000E+00    0.0000000000000000E+00   -0.8023278713532855E-01    0.3100957466061802E+00    0.0000000000000000E+00    0.0000000000000000E+00    0.0000000000000000E+00    0.0000000000000000E+00    0.0000000000000000E+00
 -0.4654   0.3980    0.5498724397915294E-01    0.0000000000000000E+00    0.0000000000000000E+00   -0.2126633174334393E-01    0.1401041254120776E+00    0.0000000000000000E+00    0.0000000000000000E+00    0.0000000000000000E+00    0.0000000000000000E+00    0.0000000000000000E+00
 -0.4676   0.3742    0.5322495572188494E-01    0.0000000000000000E+00    0.0000000000000000E+00    0.3242475463808341E-01   -0.1245751575201726E+00    0.0000000000000000E+00    0.0000000000000000E+00    0.0000000000000000E+00    0.0000000000000000E+00    0.0000000000000000E+00
 -0.4699   0.3490    0.5013379799491626E-01    0.0000000000000000E+00    0.0000000000000000E+00    0.7809834444851825E-01   -0.4817284181691147E+00    0.0000000000000000E+00    0.0000000000000000E+00    0.0000000000000000E+00    0.0000000000000000E+00    0.0000000000000000E+00
 -0.4724   0.3226    0.4587396358761056E-01    0.0000000000000000E+00    0.0000000000000000E+00    0.1140437553667310E+00   -0.9293830675527234E+00    0.0000000000000000E+00    0.0000000000000000E+00    0.0000000000000000E+00    0.0000000000000000E+00    0.0000000000000000E+00
 -0.4749   0.2949    0.4069282663082680E-01    0.0000000000000000E+00    0.0000000000000000E+00    0.1401112729103136E+00   -0.1468730205998241E+01    0.0000000000000000E+00    0.0000000000000000E+00    0.0000000000000000E+00    0.0000000000000000E+00    0.0000000000000000E+00
 -0.4776   0.2662    0.3490098630095023E-01    0.0000000000000000E+00    0.0000000000000000E+00    0.1576955390292889E+00   -0.2103203544253682E+01    0.0000000000000000E+00    0.0000000000000000E+00    0.0000000000000000E+00    0.0000000000000000E+00    0.0000000000000000E+00
 -0.4803   0.2365    0.2884596519948189E-01    0.0000000000000000E+00    0.0000000000000000E+00    0.1691415332524922E+00   -0.2834507581495838E+01    0.0000000000000000E+00    0.0000000000000000E+00    0.0000000000000000E+00    0.0000000000000000E+00    0.0000000000000000E+00
 -0.4831   0.2060    0.2289405691441713E-01    0.0000000000000000E+00    0.0000000000000000E+00    0.1769186817553149E+00   -0.3657540983906518E+01    0.0000000000000000E+00    0.0000000000000000E+00    0.0000000000000000E+00    0.0000000000000000E+00    0.0000000000000000E+00
 -0.4860   0.1748    0.1742030678825131E-01    0.0000000000000000E+00    0.0000000000000000E+00    0.1830044341456397E+00   -0.4556401731460322E+01    0.0000000000000000E+00    0.0000000000000000E+00    0.0000000000000000E+00    0.0000000000000000E+00    0.0000000000000000E+00
 -0.4889   0.1431    0.1279664070626755E-01    0.0000000000000000E+00    0.0000000000000000E+00    0.1886812598111174E+00   -0.5503040298374059E+01    0.0000000000000000E+00    0.0000000000000000E+00    0.0000000000000000E+00    0.0000000000000000E+00    0.0000000000000000E+00
 -0.4919   0.1109    0.9370025808020814E-02    0.0000000000000000E+00    0.0000000000000000E+00    0.1946511775194806E+00   -0.6458875486287890E+01    0.0000000000000000E+00    0.0000000000000000E+00    0.0000000000000000E+00    0.0000000000000000E+00    0.0000000000000000E+00
 -0.4949   0.0785    0.7430330735483594E-02    0.0000000000000000E+00    0.0000000000000000E+00    0.2012561080256913E+00   -0.7378334567685190E+01    0.0000000000000000E+00    0.0000000000000000E+00    0.0000000000000000E+00    0.0000000000000000E+00    0.0000000000000000E+00
 -0.4979   0.0460    0.7174314007673465E-02    0.0000000000000000E+00    0.0000000000000000E+00    0.2086583317019916E+00   -0.8212841339051256E+01    0.0000000000000000E+00    0.0000000000000000E+00    0.0000000000000000E+00    0.0000000000000000E+00    0.0000000000000000E+00
 -0.5009   0.0134    0.8672850816024286E-02    0.0000000000000000E+00    0.0000000000000000E+00    0.2169428366903927E+00   -0.8914196424198838E+01    0.0000000000000000E+00    0.0000000000000000E+00    0.0000000000000000E+00    0.0000000000000000E+00    0.0000000000000000E+00
 -0.5039  -0.0190    0.1184643892430146E-01    0.0000000000000000E+00    0.0000000000000000E+00    0.2261614737437928E+00   -0.9437215600486860E+01    0.0000000000000000E+00    0.0000000000000000E+00    0.0000000000000000E+00    0.0000000000000000E+00    0.0000000000000000E+00
 -0.5068  -0.0512    0.1645184477338025E-01    0.0000000000000000E+00    0.0000000000000000E+00    0.2363471034587417E+00   -0.9742205723734726E+01    0.0000000000000000E+00    0.0000000000000000E+00    0.0000000000000000E+00    0.0000000000000000E+00    0.0000000000000000E+00
 -0.5098  -0.0829    0.2208338204072869E-01    0.0000000000000000E+00    0.0000000000000000E+00    0.2475155482612722E+00   -0.9798120858993261E+01    0.0000000000000000E+00    0.0000000000000000E+00    0.0000000000000000E+00    0.0000000000000000E+00    0.0000000000000000E+00
 -0.5127  -0.1141    0.2819383806789059E-01    0.0000000000000000E+00    0.0000000000000000E+00    0.2596635143319397E+00   -0.9586823108843616E+01    0.0000000000000000E+00    0.0000000000000000E+00    0.0000000000000000E+00    0.0000000000000000E+00    0.0000000000000000E+00
 -0.5155  -0.1446    0.3414045593718389E-01    0.0000000000000000E+00    0.0000000000000000E+00    0.2727657665644596E+00   -0.9108025450911494E+01    0.0000000000000000E+00    0.0000000000000000E+00    0.0000000000000000E+00    0.0000000000000000E+00    0.0000000000000000E+00
 -0.5182  -0.1743    0.3925708091733936E-01    0.0000000000000000E+00    0.0000000000000000E+00    0.2867729715159223E+00   -0.8383454136745266E+01    0.0000000000000000E+00    0.0000000000000000E+00    0.0000000000000000E+00    0.0000000000000000E+00    0.0000000000000000E+00
 -0.5209  -0.2030    0.4294470414058016E-01    0.0000000000000000E+00    0.0000000000000000E+00    0.3016108456858430E+00   -0.7458172370694546E+01    0.0000000000000000E+00    0.0000000000000000E+00    0.0000000000000000E+00    0.0000000000000000E+00    0.0000000000000000E+00
 -0.5234  -0.2307    0.4476179009468603E-01    0.0000000000000000E+00    0.0000000000000000E+00    0.3171806043602874E+00   -0.6397286803798290E+01    0.0000000000000000E+00    0.0000000000000000E+00    0.0000000000000000E+00    0.0000000000000000E+00    0.0000000000000000E+00
 -0.5259  -0.2571    0.4448991302380789E-01    0.0000000000000000E+00    0.0000000000000000E+00    0.3333599655148020E+00   -0.5277706929869871E+01    0.0000000000000000E+00    0.0000000000000000E+00    0.0000000000000000E+00    0.0000000000000000E+00    0.0000000000000000E+00
 -0.5282  -0.2823    0.4215458805107029E-01    0.0000000000000000E+00    0.0000000000000000E+00    0.3500033305382272E+00   -0.4176646914697406E+01    0.0000000000000000E+00    0.0000000000000000E+00    0.0000000000000000E+00    0.0000000000000000E+00    0.0000000000000000E+00
 -0.5304  -0.3061    0.3799615738615732E-01    0.0000000000000000E+00    0.0000000000000000E+00    0.3669397117692281E+00   -0.3160148352277062E+01    0.0000000000000000E+00    0.0000000000000000E+00    0.0000000000000000E+00    0.0000000000000000E+00    0.0000000000000000E+00
 -0.5324  -0.3284    0.3240353061526599E-01    0.0000000000000000E+00    0.0000000000000000E+00    0.3839679683864328E+00   -0.2274981929843351E+01    0.0000000000000000E+00    0.0000000000000000E+00    0.0000000000000000E+00    0.0000000000000000E+00    0.0000000000000000E+00
 -0.5343  -0.3490    0.2583484792314684E-01    0.0000000000000000E+00    0.0000000000000000E+00    0.4008509733378153E+00   -0.1545830341661171E+01    0.0000000000000000E+00    0.0000000000000000E+00    0.0000000000000000E+00    0.0000000000000000E+00    0.0000000000000000E+00
 -0.5361  -0.3680    0.1874849826680642E-01    0.0000000000000000E+00    0.0000000000000000E+00    0.4173126473630808E+00   -0.9774912584132273E+00    0.0000000000000000E+00    0.0000000000000000E+00    0.0000000000000000E+00    0.0000000000000000E+00    0.0000000000000000E+00
 -0.5377  -0.3852    0.1155799976098716E-01    0.0000000000000000E+00    0.0000000000000000E+00    0.4330427915750152E+00   -0.5601749507586939E+00    0.0000000000000000E+00    0.0000000000000000E+00    0.0000000000000000E+00    0.0000000000000000E+00    0.0000000000000000E+00
 -0.5391  -0.4006    0.4612318232883281E-02    0.0000000000000000E+00    0.0000000000000000E+00    0.4477128966978118E+00   -0.2754372743183341E+00    0.0000000000000000E+00    0.0000000000000000E+00    0.0000000000000000E+00    0.0000000000000000E+00    0.0000000000000000E+00
 -0.5403  -0.4140   -0.1805656621109684E-02    0.0000000000000000E+00    0.0000000000000000E+00    0.4610016340496570E+00   -0.1007192465135388E+00    0.0000000000000000E+00    0.0000000000000000E+00    0.0000000000000000E+00    0.0000000000000000E+00    0.0000000000000000E+00
 -0.5414  -0.4255   -0.7472727481373967E-02    0.0000000000000000E+00    0.0000000000000000E+00    0.4726235910777608E+00   -0.1162514044488661E-01    0.0000000000000000E+00    0.0000000000000000E+00    0.0000000000000000E+00    0.0000000000000000E+00    0.0000000000000000E+00
 -0.5423  -0.4350   -0.1222116869474741E-01    0.0000000000000000E+00    0.0000000000000000E+00    0.4823520791605537E+00    0.1778365171003235E-01    0.0000000000000000E+00    0.0000000000000000E+00    0.0000000000000000E+00    0.0000000000000000E+00    0.0000000000000000E+00
 -0.5430  -0.4424   -0.1594081684222315E-01    0.0000000000000000E+00    0.0000000000000000E+00    0.4900285741449379E+00    0.1450772693062886E-01    0.0000000000000000E+00    0.0000000000000000E+00    0.0000000000000000E+00    0.0000000000000000E+00    0.0000000000000000E+00
 -0.5434  -0.4477   -0.1858535781580032E-01    0.0000000000000000E+00    0.0000000000000000E+00    0.4955570320629221E+00    0.3764461732071831E-02    0.0000000000000000E+00    0.0000000000000000E+00    0.0000000000000000E+00    0.0000000000000000E+00    0.0000000000000000E+00
 -0.5437  -0.4509   -0.2016762281613234E-01    0.0000000000000000E+00    0.0000000000000000E+00    0.4988878758766858E+00   -0.1354620355075036E-03    0.0000000000000000E+00    0.0000000000000000E+00    0.0000000000000000E+00    0.0000000000000000E+00    0.0000000000000000E+00
 -0.5438  -0.4519   -0.2069797773445993E-01    0.0000000000000000E+00    0.0000000000000000E+00    0.5000000000000000E+00    0.0000000000000000E+00    0.0000000000000000E+00    0.0000000000000000E+00    0.0000000000000000E+00    0.0000000000000000E+00    0.0000000000000000E+00
 -0.4509   0.5437    0.2409327910215455E-01    0.0000000000000000E+00    0.0000000000000000E+00   -0.5000000000000000E+00   -0.2537707026794960E-03    0.0000000000000000E+00    0.0000000000000000E+00    0.0000000000000000E+00    0.0000000000000000E+00    0.0000000000000000E+00
 -0.4510   0.5427    0.2462176856508736E-01    0.2935128802071797E-06   -0.2935935413065290E-06   -0.4960722253738974E+00   -0.5363828145944772E-03   -0.2055346701784663E-09    0.9474236409507189E-09    0.1038278892116079E-12    0.1143245654394720E-12   -0.8986437570641936E-11
 -0.4513   0.5395    0.2619305711611427E-01    0.3539357025075387E-05   -0.6581886847328364E-06   -0.4843073461771963E+00   -0.2278604107785811E-02   -0.2049030208378515E-08    0.9482927468447422E-09    0.2567659626584451E-12    0.1437727974867853E-12   -0.3562790470632016E-10
 -0.4517   0.5342    0.2875827242360269E-01    0.4497415322656764E-05    0.4282216100550098E-06   -0.4647702023080151E+00   -0.1668883733318777E-02   -0.2891504397537858E-08    0.9498270196620431E-09    0.2973576246345644E-12    0.1636013373385037E-12   -0.7978103507694234E-10
 -0.4524   0.5268    0.3218979569160138E-01   -0.1300390286690847E-04    0.2027425083952505E-05   -0.4375986490934332E+00    0.1475349682215850E-01    0.6503573044885369E-08    0.9524863150804641E-09    0.7237613286470435E-13    0.1816550382338633E-12   -0.1412705161185634E-09
 -0.4533   0.5173    0.3625431290607666E-01   -0.6197176237667261E-04    0.3403076626517965E-05   -0.4030403010505194E+00    0.5913694472836742E-01    0.3292898054368496E-07    0.9563583102528694E-09   -0.6941790892112110E-12    0.1652167985755071E-12   -0.2198422208166129E-09
 -0.4544   0.5058    0.4064000806201799E-01   -0.1430921815684843E-03    0.4055506392820933E-05   -0.3614910641803319E+00    0.1324407188197147E+00    0.7683837962969707E-07    0.9608676415293060E-09   -0.2154604619719613E-11    0.2379450803058347E-12   -0.3126372424833157E-09
 -0.4556   0.4924    0.4499260898858549E-01   -0.2435581569762285E-03    0.3850334862671244E-05   -0.3135365879041425E+00    0.2232767924358227E+00    0.1311607981652775E-06    0.9652466725212916E-09   -0.4303585265930110E-11    0.2178569824540233E-12   -0.4164213522617199E-09
 -0.4570   0.4770    0.4895123536366380E-01   -0.3397938208483705E-03    0.2797497199667766E-05   -0.2600114234587912E+00    0.3101058564045513E+00    0.1832700559785019E-06    0.9687447554210249E-09   -0.6978410904689980E-11    0.2442438612471065E-12   -0.5222017991635131E-09
 -0.4586   0.4598    0.5217999014479880E-01   -0.4025034365114931E-03    0.1084766089532744E-05   -0.2020928804596920E+00    0.3660262093010747E+00    0.2173277128115332E-06    0.9708679979750223E-09   -0.9911980958232647E-11    0.2545333735448629E-12   -0.6140458558290263E-09
 -0.4604   0.4409    0.5439482234911935E-01   -0.4027741398158983E-03   -0.1040687382809878E-05   -0.1414252950756509E+00    0.3643058111547967E+00    0.2178608924335667E-06    0.9712191233537948E-09   -0.1282626782561636E-10    0.1887387815480146E-12   -0.6679803862819078E-09
 -0.4623   0.4202    0.5538305153033577E-01   -0.3180007404132969E-03   -0.3276488085078199E-05   -0.8022446072476150E-01    0.2839483558391004E+00    0.1726995494840281E-06    0.9691738297318286E-09   -0.1549564643266166E-10    0.2097939877376831E-12   -0.6500209745463614E-09
 -0.4643   0.3979    0.5501611249365828E-01   -0.1355156132256943E-03   -0.5389152416913555E-05   -0.2125666308524662E-01    0.1130230405280199E+00    0.7512022257284630E-07    0.9632497230405157E-09   -0.1778228952975525E-10    0.1824582152032406E-12   -0.5214195464287030E-09
 -0.4665   0.3741    0.5325777592469523E-01    0.1477841146885854E-03   -0.7248538362044594E-05    0.3243513394630762E-01   -0.1515531471097618E+00   -0.7653682367831296E-07    0.9505909028678650E-09   -0.1962249807085925E-10    0.1122643644713150E-12   -0.2478658250870680E-09
 -0.4688   0.3489    0.5017019211080796E-01    0.5297109461404085E-03   -0.8876524991656657E-05    0.7810843858675973E-01   -0.5079176459627442E+00   -0.2810384596998006E-06    0.9269287698510098E-09   -0.2094795170659580E-10    0.4952982468608980E-13    0.1844463609623759E-09
 -0.4713   0.3225    0.4591423952313662E-01    0.1008196093138341E-02   -0.1036994468003747E-04    0.1140524936886144E+00   -0.9541715467016815E+00   -0.5372952243199497E-06    0.8873924858820992E-09   -0.2163322299075787E-10   -0.3052419428328790E-13    0.7552885677997168E-09
 -0.4738   0.2948    0.4073779618099842E-01    0.1584373052826957E-02   -0.1183595950104508E-04    0.1401179021511233E+00   -0.1491246729646405E+01   -0.8459171481728742E-06    0.8278427700292301E-09   -0.2148259348189185E-10   -0.1294450657773893E-12    0.1407517248586121E-08
 -0.4765   0.2661    0.3495150042448530E-01    0.2261617538933316E-02   -0.1330412947910983E-04    0.1576998746224464E+00   -0.2122010306568304E+01   -0.1208783067015858E-05    0.7462557342907683E-09   -0.2024457684823844E-10   -0.2114974861910923E-12    0.2061954863796789E-08
 -0.4792   0.2364    0.2890232172555256E-01    0.3041354688635173E-02   -0.1471569441544867E-04    0.1691439138642947E+00   -0.2847422969416760E+01   -0.1626711116106415E-05    0.6433147244078175E-09   -0.1763017509759379E-10   -0.2939176679817024E-12    0.2643595358245432E-08
 -0.4820   0.2059    0.2295560517054954E-01    0.3917713273168119E-02   -0.1592303497975961E-04    0.1769196997659803E+00   -0.3661613547391326E+01   -0.2096644994693154E-05    0.5224348245680410E-09   -0.1331301388574069E-10   -0.3875649801088343E-12    0.3102879048318130E-08
 -0.4849   0.1747    0.1748527783075022E-01    0.4873353087051479E-02   -0.1674415882257002E-04    0.1830046530295542E+00   -0.4548090894673013E+01   -0.2609348385176585E-05    0.3893667957499680E-09   -0.6977592115209319E-11   -0.4924671781481038E-12    0.3423467952157720E-08
 -0.4879   0.1430    0.1286229192970138E-01    0.5878118728024949E-02   -0.1700300511298162E-04    0.1886810685359725E+00   -0.5478566356134456E+01   -0.3148711905513944E-05    0.2516986757905570E-09    0.1572082741763126E-11   -0.5592332152914992E-12    0.3615247025356982E-08
 -0.4908   0.1108    0.9432916976400158E-02    0.6890822268996327E-02   -0.1657576438406072E-04    0.1946507859861467E+00   -0.6414674838907991E+01   -0.3692661361235679E-05    0.1182738490479451E-09    0.1227634660594390E-10   -0.6059458490526026E-12    0.3701417641572419E-08
 -0.4938   0.0784    0.7486669443072325E-02    0.7863039931616283E-02   -0.1539357594680611E-04    0.2012556069299093E+00   -0.7311522984583431E+01   -0.4215217635593987E-05   -0.1488774381552815E-11    0.2475261662304717E-10   -0.6191713808334498E-12    0.3707179010818684E-08
 -0.4968   0.0459    0.7220196004734873E-02    0.8743352003669328E-02   -0.1343951367710730E-04    0.2086577516964292E+00   -0.8121624218288064E+01   -0.4688749655056592E-05   -0.9852104201901746E-10    0.3831823747191265E-10   -0.5765873889451711E-12    0.3654454579227195E-08
 -0.4998   0.0133    0.8704440976126283E-02    0.9480920523635323E-02   -0.1072530874911719E-04    0.2169421843701308E+00   -0.8798202241761663E+01   -0.5085911647696086E-05   -0.1653033682158522E-09    0.5206418629555287E-10   -0.5199521369014803E-12    0.3560180437782445E-08
 -0.5028  -0.0191    0.1186006777582161E-01    0.1002827053640891E-01   -0.7287513032272715E-05    0.2261607482820343E+00   -0.9297746827371318E+01   -0.5381131430425815E-05   -0.1967979616074311E-09    0.6496730931004890E-10   -0.4046207813246383E-12    0.3436032411721635E-08
 -0.5058  -0.0513    0.1644417158737773E-01    0.1034389513583058E-01   -0.3189773619120023E-05    0.2363463030728668E+00   -0.9582408902270913E+01   -0.5552014420914619E-05   -0.1912286683170006E-09    0.7598666140751220E-10   -0.2465857379396752E-12    0.3290949404481658E-08
 -0.5087  -0.0830    0.2205163311147913E-01    0.1039556490868847E-01    0.1451197069806315E-05    0.2475146724997907E+00   -0.9623021122616469E+01   -0.5581132856881343E-05   -0.1506276015375563E-09    0.8417588848175228E-10   -0.5693449184329680E-13    0.3130610687351876E-08
 -0.5116  -0.1142    0.2813621633576125E-01    0.1016477889425804E-01    0.6440766140598816E-05    0.2596625647119075E+00   -0.9403160849464719E+01   -0.5458415502577898E-05   -0.8083701069638849E-10    0.8874873058672961E-10    0.1704782148781447E-12    0.2959172892835760E-08
 -0.5144  -0.1447    0.3405660142159496E-01    0.9651897793963193E-02    0.1148668250544745E-04    0.2727647463067948E+00   -0.8923786378987856E+01   -0.5183943455437952E-05    0.8953910529685416E-11    0.8918421556813882E-10    0.4119829477566839E-12    0.2779257095297805E-08
 -0.5171  -0.1744    0.3914851533939264E-01    0.8880425028020694E-02    0.1621077924163262E-04    0.2867718845438567E+00   -0.8207085641791595E+01   -0.4770244817130702E-05    0.1073003907947623E-09    0.8538114659728535E-10    0.6221412274243221E-12    0.2592576970814053E-08
 -0.5198  -0.2031    0.4281500139457561E-01    0.7898291386801910E-02    0.2019643733211600E-04    0.3016096950895394E+00   -0.7297535983079392E+01   -0.4243042662035177E-05    0.2021778647276484E-09    0.7764983100955192E-10    0.8528594497292374E-12    0.2399923336449117E-08
 -0.5223  -0.2308    0.4461639019703381E-01    0.6774313854555097E-02    0.2306838199937487E-04    0.3171793908469360E+00   -0.6258601251885433E+01   -0.3639315605274902E-05    0.2831284096060926E-09    0.6682415731873448E-10    0.9945100298835996E-12    0.2201776603052985E-08
 -0.5248  -0.2572    0.4433546624329786E-01    0.5589513411656902E-02    0.2458137060159701E-04    0.3333586867444011E+00   -0.5164728839444789E+01   -0.3002683276219941E-05    0.3430030773299286E-09    0.5413408610266401E-10    0.1104297209231220E-11    0.1999473229347126E-08
 -0.5271  -0.2824    0.4199804698931794E-01    0.4425075040910137E-02    0.2467770720190473E-04    0.3500019824111237E+00   -0.4090382406973247E+01   -0.2376843190965533E-05    0.3791610081460561E-09    0.4097702732686059E-10    0.1218358747223647E-11    0.1793360550339518E-08
 -0.5293  -0.3062    0.3784379534312419E-01    0.3350366227540505E-02    0.2349706345604278E-04    0.3669382924116839E+00   -0.3099102545756361E+01   -0.1799188539873582E-05    0.3933044237514061E-09    0.2864317116824111E-10    0.1249139680581379E-11    0.1585225870709417E-08
 -0.5314  -0.3285    0.3226025741077565E-01    0.2414499373580275E-02    0.2132060928430167E-04    0.3839664845898578E+00   -0.2235881726691975E+01   -0.1296147286545901E-05    0.3902183715043250E-09    0.1811752137204081E-10    0.1233457780358549E-11    0.1376966896407539E-08
 -0.5333  -0.3491    0.2570388922604253E-01    0.1643405913777821E-02    0.1849410026953971E-04    0.4008494477206074E+00   -0.1524468140935092E+01   -0.8817248263024575E-06    0.3760572825362019E-09    0.9922083987756736E-11    0.1212835387676137E-11    0.1171763616691912E-08
 -0.5350  -0.3681    0.1863154753347448E-01    0.1042140218424953E-02    0.1533347360974522E-04    0.4173111231668816E+00   -0.9695246340202011E+00   -0.5585957283788291E-06    0.3567955028649372E-09    0.4129190045443210E-11    0.1162694940326503E-11    0.9728967024363877E-09
 -0.5366  -0.3853    0.1145558281961875E-01    0.6004091347342295E-03    0.1208207489397590E-04    0.4330413317335016E+00   -0.5615902858152517E+00   -0.3212731046796037E-06    0.3369913653683554E-09    0.4815137004399173E-12    0.1110424252548370E-11    0.7847474111505326E-09
 -0.5380  -0.4007    0.4524286871516401E-02    0.2987523186556873E-03    0.8879995774157867E-05    0.4477115752713701E+00   -0.2827823104452926E+00   -0.1592204770126634E-06    0.3196123678217422E-09   -0.1470903260303302E-11    0.1068513333368770E-11    0.6107350597472916E-09
 -0.5393  -0.4141   -0.1879878532820271E-02    0.1132755068499611E-03    0.5822285943633134E-05    0.4610005210559963E+00   -0.1109836682349730E+00   -0.5968984507305426E-07    0.3059619363421362E-09   -0.2232814627634028E-11    0.1056675580368704E-11    0.4543109022661640E-09
 -0.5403  -0.4256   -0.7534201523474253E-02    0.1801767922381892E-04    0.3000703842900222E-05    0.4726227349830111E+00   -0.2213815211341549E-01   -0.8644804124157252E-08    0.2962464544509213E-09   -0.2282802419317775E-11    0.1021830189906758E-11    0.3182861196826536E-09
 -0.5412  -0.4351   -0.1227203397767132E-01   -0.1463827864832034E-04    0.6623675345884601E-06    0.4823514933108676E+00    0.9495492206939545E-02    0.8577437055161730E-08    0.2896414800709901E-09   -0.2008195693070647E-11    0.1019428465254268E-11    0.2051398924861336E-09
 -0.5419  -0.4425   -0.1598527241920728E-01   -0.1330872900940714E-04   -0.8364979453438787E-06    0.4900282328743722E+00    0.1025419537314082E-01    0.7563302598008366E-08    0.2850660640700553E-09   -0.1687636141944893E-11    0.1005457869740489E-11    0.1157985096700287E-09
 -0.5424  -0.4478   -0.1863016093111716E-01   -0.3877701757109760E-05   -0.1045804900997840E-05    0.4955568785317929E+00    0.3585465891555692E-02    0.2052945404863328E-08    0.2804521374247942E-09   -0.1413542893846653E-11    0.1051610621499721E-11    0.5164264805720964E-10
 -0.5427  -0.4510   -0.2021471222682778E-01   -0.1008508019467983E-06   -0.1011349453896796E-06    0.4988878374084254E+00    0.5118066866116116E-03    0.8808046541094577E-10    0.2755930592784374E-09   -0.7342742950125491E-12    0.7495954811725936E-12    0.1285101967332322E-10
 -0.5428  -0.4520   -0.2074512261009696E-01    0.0000000000000000E+00    0.0000000000000000E+00    0.5000000000000000E+00   -0.1348827052360679E-03    0.0000000000000000E+00    0.0000000000000000E+00    0.0000000000000000E+00    0.0000000000000000E+00    0.0000000000000000E+00
 -0.4477   0.5434    0.2423338703450130E-01    0.0000000000000000E+00    0.0000000000000000E+00   -0.5000000000000000E+00   -0.4353703852613174E-02    0.0000000000000000E+00    0.0000000000000000E+00    0.0000000000000000E+00    0.0000000000000000E+00    0.0000000000000000E+00
 -0.4478   0.5424    0.2476209796973549E-01    0.6580511289136605E-06   -0.3539417661396831E-05   -0.4960710073667844E+00   -0.2278495857061174E-02   -0.2049095885353532E-08    0.9481319015493261E-09    0.1878148244566225E-12    0.1661801664158691E-12   -0.8842459750524334E-11
 -0.4481   0.5392    0.2633164878772108E-01    0.4295767924161363E-05   -0.4295973090632186E-05   -0.4843024978543866E+00    0.2723730508786762E-02   -0.1773194342855866E-07    0.9485218252112612E-09    0.5577339805273862E-12    0.4261554217149799E-12   -0.3558469404557618E-10
 -0.4486   0.5339    0.2888417840331560E-01   -0.5652982891510881E-05    0.9126874035345648E-05   -0.4647594728684017E+00    0.1027142121516371E-01   -0.8801549970873710E-08    0.9497340578909497E-09    0.6724317283546277E-12    0.6866217663881180E-12   -0.7964848745822817E-10
 -0.4492   0.5265    0.3229110814888768E-01   -0.7798877289276616E-04    0.3132516329527959E-04   -0.4375801950294694E+00    0.2754704410221923E-01    0.1436269084758609E-06    0.9521135303780515E-09   -0.2734080323252286E-12    0.1062898033477033E-11   -0.1417143676712973E-09
 -0.4501   0.5170    0.3632921482618104E-01   -0.2589761727939495E-03    0.5110361163242276E-04   -0.4030127433010079E+00    0.6460763589938766E-01    0.5440681704948923E-06    0.9556477414962572E-09   -0.3200102726211296E-11    0.1477151734263771E-11   -0.2199314202977476E-09
 -0.4512   0.5055    0.4069422165421445E-01   -0.5545819735577518E-03    0.6089564716792048E-04   -0.3614531372071752E+00    0.1241647255137955E+00    0.1202902277214154E-05    0.9598876554717251E-09   -0.8713018154193897E-11    0.1809618427328630E-11   -0.3130886938595978E-09
 -0.4524   0.4921    0.4503554777740627E-01   -0.9196990743202566E-03    0.5764105263835782E-04   -0.3134865462284926E+00    0.1977078322675911E+00    0.2017813911178137E-05    0.9641094936285732E-09   -0.1684810277402526E-10    0.2008835806033282E-11   -0.4168708503393681E-09
 -0.4538   0.4767    0.4899270113089071E-01   -0.1266642642794500E-02    0.4150435740172408E-04   -0.2599466125524356E+00    0.2667680227986326E+00    0.2795295894109392E-05    0.9675985533641462E-09   -0.2701657647596889E-10    0.2049811709259330E-11   -0.5224589823271675E-09