 title="result"
 variables="x","y","P","u","v","t","omega","psi","RES1","RES2","RES3","RES4"
zone,j= 49,i= 49,f=point
 -0.2534   0.6601    0.2517414182472909E-01    0.0000000000000000E+00    0.0000000000000000E+00   -0.5000000000000000E+00    0.0000000000000000E+00    0.0000000000000000E+00    0.0000000000000000E+00    0.0000000000000000E+00    0.0000000000000000E+00    0.0000000000000000E+00
 -0.2538   0.6592    0.2566037216370474E-01    0.0000000000000000E+00    0.0000000000000000E+00   -0.4951491189520038E+00    0.3360144681671014E-03    0.0000000000000000E+00    0.0000000000000000E+00    0.0000000000000000E+00    0.0000000000000000E+00    0.0000000000000000E+00
 -0.2551   0.6562    0.2706977580692308E-01    0.0000000000000000E+00    0.0000000000000000E+00   -0.4806200696852523E+00   -0.4550543074622815E-02    0.0000000000000000E+00    0.0000000000000000E+00    0.0000000000000000E+00    0.0000000000000000E+00    0.0000000000000000E+00
 -0.2573   0.6514    0.2932556557764011E-01    0.0000000000000000E+00    0.0000000000000000E+00   -0.4565009102008249E+00   -0.3717353941409190E-01    0.0000000000000000E+00    0.0000000000000000E+00    0.0000000000000000E+00    0.0000000000000000E+00    0.0000000000000000E+00
 -0.2603   0.6446    0.3237231379922157E-01    0.0000000000000000E+00    0.0000000000000000E+00   -0.4229994447722741E+00   -0.1121500718668066E+00    0.0000000000000000E+00    0.0000000000000000E+00    0.0000000000000000E+00    0.0000000000000000E+00    0.0000000000000000E+00
 -0.2642   0.6359    0.3611224655622099E-01    0.0000000000000000E+00    0.0000000000000000E+00   -0.3805447321845935E+00   -0.2242527016211369E+00    0.0000000000000000E+00    0.0000000000000000E+00    0.0000000000000000E+00    0.0000000000000000E+00    0.0000000000000000E+00
 -0.2689   0.6254    0.4035923510320246E-01    0.0000000000000000E+00    0.0000000000000000E+00   -0.3299332638538854E+00   -0.3543007157119984E+00    0.0000000000000000E+00    0.0000000000000000E+00    0.0000000000000000E+00    0.0000000000000000E+00    0.0000000000000000E+00
 -0.2744   0.6130    0.4482771401733456E-01    0.0000000000000000E+00    0.0000000000000000E+00   -0.2724885372767293E+00   -0.4766605416510523E+00    0.0000000000000000E+00    0.0000000000000000E+00    0.0000000000000000E+00    0.0000000000000000E+00    0.0000000000000000E+00
 -0.2807   0.5989    0.4914163746986471E-01    0.0000000000000000E+00    0.0000000000000000E+00   -0.2101685018574949E+00   -0.5681182399571847E+00    0.0000000000000000E+00    0.0000000000000000E+00    0.0000000000000000E+00    0.0000000000000000E+00    0.0000000000000000E+00
 -0.2877   0.5832    0.5287198619378373E-01    0.0000000000000000E+00    0.0000000000000000E+00   -0.1455433698268072E+00   -0.6169129820918905E+00    0.0000000000000000E+00    0.0000000000000000E+00    0.0000000000000000E+00    0.0000000000000000E+00    0.0000000000000000E+00
 -0.2954   0.5658    0.5559787081325961E-01    0.0000000000000000E+00    0.0000000000000000E+00   -0.8159859892827653E-01   -0.6299836473890058E+00    0.0000000000000000E+00    0.0000000000000000E+00    0.0000000000000000E+00    0.0000000000000000E+00    0.0000000000000000E+00
 -0.3039   0.5468    0.5698467734042845E-01    0.0000000000000000E+00    0.0000000000000000E+00   -0.2138646257907538E-01   -0.6342796225505422E+00    0.0000000000000000E+00    0.0000000000000000E+00    0.0000000000000000E+00    0.0000000000000000E+00    0.0000000000000000E+00
 -0.3130   0.5264    0.5685099842272347E-01    0.0000000000000000E+00    0.0000000000000000E+00    0.3238957900021638E-01   -0.6693344906438760E+00    0.0000000000000000E+00    0.0000000000000000E+00    0.0000000000000000E+00    0.0000000000000000E+00    0.0000000000000000E+00
 -0.3227   0.5045    0.5519466860689701E-01    0.0000000000000000E+00    0.0000000000000000E+00    0.7775996417261054E-01   -0.7739066716668975E+00    0.0000000000000000E+00    0.0000000000000000E+00    0.0000000000000000E+00    0.0000000000000000E+00    0.0000000000000000E+00
 -0.3330   0.4814    0.5216485480336446E-01    0.0000000000000000E+00    0.0000000000000000E+00    0.1137677764899176E+00   -0.9748560681222332E+00    0.0000000000000000E+00    0.0000000000000000E+00    0.0000000000000000E+00    0.0000000000000000E+00    0.0000000000000000E+00
 -0.3438   0.4571    0.4800351540048037E-01    0.0000000000000000E+00    0.0000000000000000E+00    0.1405807462353365E+00   -0.1284898820024506E+01    0.0000000000000000E+00    0.0000000000000000E+00    0.0000000000000000E+00    0.0000000000000000E+00    0.0000000000000000E+00
 -0.3551   0.4318    0.4299228688851082E-01    0.0000000000000000E+00    0.0000000000000000E+00    0.1593825573271441E+00   -0.1707721462542526E+01    0.0000000000000000E+00    0.0000000000000000E+00    0.0000000000000000E+00    0.0000000000000000E+00    0.0000000000000000E+00
 -0.3668   0.4054    0.3742556729026108E-01    0.0000000000000000E+00    0.0000000000000000E+00    0.1720349556898987E+00   -0.2243439961495598E+01    0.0000000000000000E+00    0.0000000000000000E+00    0.0000000000000000E+00    0.0000000000000000E+00    0.0000000000000000E+00
 -0.3789   0.3782    0.3160479642944260E-01    0.0000000000000000E+00    0.0000000000000000E+00    0.1806025426260174E+00   -0.2889722262384693E+01    0.0000000000000000E+00    0.0000000000000000E+00    0.0000000000000000E+00    0.0000000000000000E+00    0.0000000000000000E+00
 -0.3914   0.3502    0.2584168444819564E-01    0.0000000000000000E+00    0.0000000000000000E+00    0.1869153912028423E+00   -0.3639454233959746E+01    0.0000000000000000E+00    0.0000000000000000E+00    0.0000000000000000E+00    0.0000000000000000E+00    0.0000000000000000E+00
 -0.4041   0.3216    0.2046051527991495E-01    0.0000000000000000E+00    0.0000000000000000E+00    0.1923225405978116E+00   -0.4478029073666816E+01    0.0000000000000000E+00    0.0000000000000000E+00    0.0000000000000000E+00    0.0000000000000000E+00    0.0000000000000000E+00
 -0.4171   0.2925    0.1579401276218825E-01    0.0000000000000000E+00    0.0000000000000000E+00    0.1976701427424625E+00   -0.5382277399020546E+01    0.0000000000000000E+00    0.0000000000000000E+00    0.0000000000000000E+00    0.0000000000000000E+00    0.0000000000000000E+00
 -0.4302   0.2630    0.1216920211641690E-01    0.0000000000000000E+00    0.0000000000000000E+00    0.2034227085819153E+00   -0.6321337515839542E+01    0.0000000000000000E+00    0.0000000000000000E+00    0.0000000000000000E+00    0.0000000000000000E+00    0.0000000000000000E+00
 -0.4435   0.2332    0.9884613743973201E-02    0.0000000000000000E+00    0.0000000000000000E+00    0.2098155431039993E+00   -0.7258810927135030E+01    0.0000000000000000E+00    0.0000000000000000E+00    0.0000000000000000E+00    0.0000000000000000E+00    0.0000000000000000E+00
 -0.4568   0.2034    0.9183082505045851E-02    0.0000000000000000E+00    0.0000000000000000E+00    0.2169696991320842E+00   -0.8155134643236613E+01    0.0000000000000000E+00    0.0000000000000000E+00    0.0000000000000000E+00    0.0000000000000000E+00    0.0000000000000000E+00
 -0.4701   0.1735    0.1022504605383162E-01    0.0000000000000000E+00    0.0000000000000000E+00    0.2249558898919975E+00   -0.8969331630336169E+01    0.0000000000000000E+00    0.0000000000000000E+00    0.0000000000000000E+00    0.0000000000000000E+00    0.0000000000000000E+00
 -0.4833   0.1437    0.1306436917112947E-01    0.0000000000000000E+00    0.0000000000000000E+00    0.2338220021747447E+00   -0.9659873050970591E+01    0.0000000000000000E+00    0.0000000000000000E+00    0.0000000000000000E+00    0.0000000000000000E+00    0.0000000000000000E+00
 -0.4964   0.1143    0.1762702545201458E-01    0.0000000000000000E+00    0.0000000000000000E+00    0.2436016497446498E+00   -0.1018516032673997E+02    0.0000000000000000E+00    0.0000000000000000E+00    0.0000000000000000E+00    0.0000000000000000E+00    0.0000000000000000E+00
 -0.5094   0.0851    0.2369307136125101E-01    0.0000000000000000E+00    0.0000000000000000E+00    0.2543146416432677E+00   -0.1050461370817574E+02    0.0000000000000000E+00    0.0000000000000000E+00    0.0000000000000000E+00    0.0000000000000000E+00    0.0000000000000000E+00
 -0.5221   0.0565    0.3088593702228742E-01    0.0000000000000000E+00    0.0000000000000000E+00    0.2659644208620737E+00   -0.1058147340149651E+02    0.0000000000000000E+00    0.0000000000000000E+00    0.0000000000000000E+00    0.0000000000000000E+00    0.0000000000000000E+00
 -0.5346   0.0286    0.3867725184011683E-01    0.0000000000000000E+00    0.0000000000000000E+00    0.2785346175578534E+00   -0.1038790894429139E+02    0.0000000000000000E+00    0.0000000000000000E+00    0.0000000000000000E+00    0.0000000000000000E+00    0.0000000000000000E+00
 -0.5467   0.0013    0.4641805603359590E-01    0.0000000000000000E+00    0.0000000000000000E+00    0.2919858386541279E+00   -0.9912056476630866E+01    0.0000000000000000E+00    0.0000000000000000E+00    0.0000000000000000E+00    0.0000000000000000E+00    0.0000000000000000E+00
 -0.5585  -0.0250    0.5340383056980429E-01    0.0000000000000000E+00    0.0000000000000000E+00    0.3062534894161449E+00   -0.9165208714115375E+01    0.0000000000000000E+00    0.0000000000000000E+00    0.0000000000000000E+00    0.0000000000000000E+00    0.0000000000000000E+00
 -0.5698  -0.0504    0.5897009511903284E-01    0.0000000000000000E+00    0.0000000000000000E+00    0.3212471116458401E+00   -0.8186310241990896E+01    0.0000000000000000E+00    0.0000000000000000E+00    0.0000000000000000E+00    0.0000000000000000E+00    0.0000000000000000E+00
 -0.5806  -0.0747    0.6259962661854086E-01    0.0000000000000000E+00    0.0000000000000000E+00    0.3368511455464665E+00   -0.7040816421127658E+01    0.0000000000000000E+00    0.0000000000000000E+00    0.0000000000000000E+00    0.0000000000000000E+00    0.0000000000000000E+00
 -0.5909  -0.0978    0.6401035620500706E-01    0.0000000000000000E+00    0.0000000000000000E+00    0.3529262157550273E+00   -0.5812634342540273E+01    0.0000000000000000E+00    0.0000000000000000E+00    0.0000000000000000E+00    0.0000000000000000E+00    0.0000000000000000E+00
 -0.6006  -0.1196    0.6319413750213432E-01    0.0000000000000000E+00    0.0000000000000000E+00    0.3693093623063017E+00   -0.4590652586476675E+01    0.0000000000000000E+00    0.0000000000000000E+00    0.0000000000000000E+00    0.0000000000000000E+00    0.0000000000000000E+00
 -0.6097  -0.1401    0.6039366652591618E-01    0.0000000000000000E+00    0.0000000000000000E+00    0.3858116987784463E+00   -0.3454017707447075E+01    0.0000000000000000E+00    0.0000000000000000E+00    0.0000000000000000E+00    0.0000000000000000E+00    0.0000000000000000E+00
 -0.6181  -0.1590    0.5602943748397020E-01    0.0000000000000000E+00    0.0000000000000000E+00    0.4022133369308822E+00   -0.2460878308018265E+01    0.0000000000000000E+00    0.0000000000000000E+00    0.0000000000000000E+00    0.0000000000000000E+00    0.0000000000000000E+00
 -0.6259  -0.1764    0.5060602565278147E-01    0.0000000000000000E+00    0.0000000000000000E+00    0.4182579973523796E+00   -0.1643689614835594E+01    0.0000000000000000E+00    0.0000000000000000E+00    0.0000000000000000E+00    0.0000000000000000E+00    0.0000000000000000E+00
 -0.6329  -0.1922    0.4462873195479967E-01    0.0000000000000000E+00    0.0000000000000000E+00    0.4336523146572190E+00   -0.1011061325939316E+01    0.0000000000000000E+00    0.0000000000000000E+00    0.0000000000000000E+00    0.0000000000000000E+00    0.0000000000000000E+00
 -0.6392  -0.2063    0.3854929454803697E-01    0.0000000000000000E+00    0.0000000000000000E+00    0.4480753249997998E+00   -0.5538067177473521E+00    0.0000000000000000E+00    0.0000000000000000E+00    0.0000000000000000E+00    0.0000000000000000E+00    0.0000000000000000E+00
 -0.6447  -0.2186    0.3274337947590191E-01    0.0000000000000000E+00    0.0000000000000000E+00    0.4612003754986684E+00   -0.2516472441472893E+00    0.0000000000000000E+00    0.0000000000000000E+00    0.0000000000000000E+00    0.0000000000000000E+00    0.0000000000000000E+00
 -0.6493  -0.2292    0.2750961561226595E-01    0.0000000000000000E+00    0.0000000000000000E+00    0.4727254433342837E+00   -0.7798215488194780E-01    0.0000000000000000E+00    0.0000000000000000E+00    0.0000000000000000E+00    0.0000000000000000E+00    0.0000000000000000E+00
 -0.6532  -0.2378    0.2307510491844239E-01    0.0000000000000000E+00    0.0000000000000000E+00    0.4824020848221209E+00   -0.1403357617059738E-02    0.0000000000000000E+00    0.0000000000000000E+00    0.0000000000000000E+00    0.0000000000000000E+00    0.0000000000000000E+00
 -0.6562  -0.2446    0.1959377197289077E-01    0.0000000000000000E+00    0.0000000000000000E+00    0.4900521595517836E+00    0.1385305908537981E-01    0.0000000000000000E+00    0.0000000000000000E+00    0.0000000000000000E+00    0.0000000000000000E+00    0.0000000000000000E+00
 -0.6584  -0.2495    0.1713573708150627E-01    0.0000000000000000E+00    0.0000000000000000E+00    0.4955667211183415E+00    0.5322439918661004E-02    0.0000000000000000E+00    0.0000000000000000E+00    0.0000000000000000E+00    0.0000000000000000E+00    0.0000000000000000E+00
 -0.6597  -0.2524    0.1568050069590784E-01    0.0000000000000000E+00    0.0000000000000000E+00    0.4988902527240111E+00   -0.5898284389677971E-04    0.0000000000000000E+00    0.0000000000000000E+00    0.0000000000000000E+00    0.0000000000000000E+00    0.0000000000000000E+00
 -0.6601  -0.2534    0.1519539333364891E-01    0.0000000000000000E+00    0.0000000000000000E+00    0.5000000000000000E+00    0.0000000000000000E+00    0.0000000000000000E+00    0.0000000000000000E+00    0.0000000000000000E+00    0.0000000000000000E+00    0.0000000000000000E+00
 -0.2524   0.6597    0.2539224313250302E-01    0.0000000000000000E+00    0.0000000000000000E+00   -0.5000000000000000E+00    0.3362251943558968E-03    0.0000000000000000E+00    0.0000000000000000E+00    0.0000000000000000E+00    0.0000000000000000E+00    0.0000000000000000E+00
 -0.2529   0.6587    0.2587741883090984E-01    0.3708533206652949E-07   -0.3694929225628361E-07   -0.4951489779951820E+00   -0.6501133632278313E-03   -0.1245306560783866E-10    0.3675065294401689E-09   -0.7492134083270097E-12   -0.7585143450838938E-12    0.1050877223782165E-10
 -0.2542   0.6558    0.2728841753180570E-01    0.6220470835055013E-05   -0.2012529494909549E-05   -0.4806194982600913E+00   -0.7494972794408918E-02   -0.3066979027911784E-08    0.3623289840902488E-09   -0.1383906010621327E-11   -0.1118735312721775E-11    0.4217707346571009E-10
 -0.2563   0.6509    0.2954667094372686E-01    0.3971736507425246E-04   -0.4637523214187378E-05   -0.4564995757457495E+00   -0.3724140505031844E-01   -0.2132394327795815E-07    0.3576307236463627E-09   -0.1301867901676301E-11   -0.1062924054329173E-11    0.9509281556630000E-10
 -0.2594   0.6441    0.3258735791058560E-01    0.1164460718799661E-03   -0.6286210695833802E-05   -0.4229969431077079E+00   -0.1055837275190988E+00   -0.6295016425682778E-07    0.3547420707877835E-09   -0.9735059980364724E-12   -0.1140507827068760E-11    0.1694850405853376E-09
 -0.2632   0.6355    0.3631064474983799E-01    0.2324942679106385E-03   -0.6697829748491263E-05   -0.3805406222175547E+00   -0.2102115252249429E+00   -0.1257965082276659E-06    0.3530749113217491E-09   -0.6341940861354090E-12   -0.1076652655918053E-11    0.2671388318886692E-09
 -0.2679   0.6249    0.4053188209502537E-01    0.3684477849699594E-03   -0.5892291678652530E-05   -0.3299271626513369E+00   -0.3341363848710392E+00   -0.1991264924699497E-06    0.3523390329496223E-09   -0.5532727054280429E-12   -0.1072326255568967E-11    0.3901551026697092E-09
 -0.2734   0.6126    0.4496775322694302E-01    0.4976800818704657E-03   -0.4344937781308042E-05   -0.2724802466344752E+00   -0.4531912852947889E+00   -0.2686279008324839E-06    0.3513829557183490E-09   -0.9187720029224522E-12   -0.1050864256724182E-11    0.5428670013518655E-09
 -0.2797   0.5985    0.4924558649007930E-01    0.5957674090006917E-03   -0.2497856107483538E-05   -0.2101581169972515E+00   -0.5449843150842955E+00   -0.3210902643745664E-06    0.3488611855992363E-09   -0.1806853278107923E-11   -0.1044640068892377E-11    0.7305012289515744E-09
 -0.2867   0.5827    0.5294016220524461E-01    0.6501498648580243E-03   -0.9460384523230164E-06   -0.1455313153904088E+00   -0.5977884727093733E+00   -0.3498276119260711E-06    0.3430365371100141E-09   -0.3208287802092258E-11   -0.1035360165657639E-11    0.9595993583078055E-09
 -0.2945   0.5653    0.5563435479482829E-01    0.6678325763659143E-03   -0.1520248107761859E-06   -0.8158556727024423E-01   -0.6177613516204742E+00   -0.3586334809223687E-06    0.3318436175804226E-09   -0.5053239077179583E-11   -0.1000794282515760E-11    0.1232720231447715E-08
 -0.3029   0.5464    0.5699620343249311E-01    0.6768672266474587E-03   -0.4135581594963455E-06   -0.2137328305167798E-01   -0.6303452778385162E+00   -0.3626860804206009E-06    0.3128097132449464E-09   -0.7244423810837120E-11   -0.9984361427906041E-12    0.1544514530160690E-08
 -0.3120   0.5259    0.5684518995564555E-01    0.7186642334682424E-03   -0.1645961256955760E-05    0.3240207843034521E-01   -0.6733742259968556E+00   -0.3842981162303472E-06    0.2834023293818433E-09   -0.9619291474471936E-11   -0.9544899592928147E-12    0.1875084018609918E-08
 -0.3217   0.5041    0.5517833323389353E-01    0.8340341948236080E-03   -0.3526598101405576E-05    0.7777106272577142E-01   -0.7843272209203228E+00   -0.4454450544389869E-06    0.2414991219154561E-09   -0.1195377477558601E-10   -0.9211104101680689E-12    0.2188052988794098E-08
 -0.3320   0.4810    0.5214324268410093E-01    0.1051460177368486E-02   -0.5636470885094523E-05    0.1137769397329369E+00   -0.9895638953636935E+00   -0.5614163387137970E-06    0.1861499964589397E-09   -0.1399079463393349E-10   -0.9524186994624984E-12    0.2434365119208248E-08
 -0.3428   0.4567    0.4798049168347886E-01    0.1384581907277744E-02   -0.7723231857911148E-05    0.1405876967955901E+00   -0.1301851314725502E+01   -0.7395106993693058E-06    0.1178855034422721E-09   -0.1546547612196747E-10   -0.8670286710810160E-12    0.2564438890406695E-08
 -0.3541   0.4313    0.4297076774252567E-01    0.1837412697580689E-02   -0.9687944164527030E-05    0.1593873206779805E+00   -0.1725004768164585E+01   -0.9818654563745570E-06    0.3879772197956655E-10   -0.1611399902401445E-10   -0.8323966516066150E-12    0.2544128251819044E-08
 -0.3658   0.4050    0.3740762006907150E-01    0.2410008477630837E-02   -0.1153447848225405E-04    0.1720378363024817E+00   -0.2259012095282452E+01   -0.1288519728133079E-05   -0.4798045641352111E-10   -0.1562223267415064E-10   -0.7850803340758716E-12    0.2368997477353307E-08
 -0.3780   0.3777    0.3159145169467240E-01    0.3099663877555726E-02   -0.1322654835444659E-04    0.1806040139409265E+00   -0.2901150258917947E+01   -0.1658067657170340E-05   -0.1385646909712879E-09   -0.1362724863507303E-10   -0.7132280877009123E-12    0.2064929735881571E-08
 -0.3904   0.3498    0.2583277323573738E-01    0.3898495730328006E-02   -0.1469072309311536E-04    0.1869159448408466E+00   -0.3643805259789549E+01   -0.2086330405515749E-05   -0.2289230680019294E-09   -0.9809207265898401E-11   -0.6260270080105101E-12    0.1678593800416572E-08
 -0.4032   0.3212    0.2045471510166150E-01    0.4790634761096036E-02   -0.1580503446390598E-04    0.1923225689785139E+00   -0.4471934812282790E+01   -0.2564863603643630E-05   -0.3147903847311451E-09   -0.3947134286086396E-11   -0.5670741654029143E-12    0.1259925332954773E-08
 -0.4161   0.2920    0.1578907657635669E-01    0.5751149401389208E-02   -0.1646254453640655E-04    0.1976698971219694E+00   -0.5362132119906227E+01   -0.3080334962906931E-05   -0.3915582268143591E-09    0.3924714719882871E-11   -0.4770628336814298E-12    0.8500781155384995E-09
 -0.4292   0.2626    0.1216225039506564E-01    0.6747022701307090E-02   -0.1656994319942904E-04    0.2034223199215371E+00   -0.6283573964821946E+01   -0.3615079312814659E-05   -0.4543881347573997E-09    0.1349485800883343E-10   -0.4103245521136500E-12    0.4749091358884072E-09
 -0.4425   0.2328    0.9872403627035129E-02    0.7739472842509793E-02   -0.1607861116973286E-04    0.2098150664107106E+00   -0.7200208918396955E+01   -0.4148292062012396E-05   -0.4982082801863186E-09    0.2421438050070890E-10   -0.3329281295094688E-12    0.1470935899125503E-09
 -0.4558   0.2029    0.9162169508547558E-02    0.8686486295814158E-02   -0.1495341853356958E-04    0.2169691513386084E+00   -0.8073106442397556E+01   -0.4657438563520821E-05   -0.5183659543273045E-09    0.3533823234036504E-10   -0.2361305595499630E-12   -0.1293649284916931E-09
 -0.4691   0.1731    0.1019184466285448E-01    0.9544676182802034E-02   -0.1317521417752969E-04    0.2249552723014827E+00   -0.8862191221064124E+01   -0.5119193219493267E-05   -0.5112760388670257E-09    0.4610151149719854E-10   -0.1885019917935438E-12   -0.3550077714437050E-09
 -0.4823   0.1433    0.1301511655661186E-01    0.1027020280926477E-01   -0.1070826501698410E-04    0.2338213109939236E+00   -0.9527085475262060E+01   -0.5509997402653480E-05   -0.4749913552759555E-09    0.5577832640213387E-10   -0.1477915012593201E-12   -0.5326707200326020E-09
 -0.4955   0.1138    0.1755775958104790E-01    0.1081929749939513E-01   -0.7517200900905955E-05    0.2436008804389911E+00   -0.1002762328784532E+02   -0.5806267099412052E-05   -0.4096663737407358E-09    0.6373079841637264E-10   -0.1237135394127620E-12   -0.6663234573475729E-09
 -0.5084   0.0847    0.2359968616186771E-01    0.1114943735195093E-01   -0.3571120840545125E-05    0.2543137907959533E+00   -0.1032493679948780E+02   -0.5985098683284242E-05   -0.3175709582456387E-09    0.6946987429756746E-10   -0.1156123807799503E-12   -0.7593908748354528E-09
 -0.5212   0.0561    0.3076445392467945E-01    0.1122231749424130E-01    0.1102798003190881E-05    0.2659634870906259E+00   -0.1038423091122534E+02   -0.6025778177460494E-05   -0.2031398465239531E-09    0.7268163848550557E-10   -0.1140502622898332E-12   -0.8158923016365893E-09
 -0.5336   0.0281    0.3852430736598996E-01    0.1100923020897464E-01    0.6383564294656937E-05    0.2785336018696919E+00   -0.1017969745789892E+02   -0.5912771909258434E-05   -0.7274486395203450E-10    0.7314926442347769E-10   -0.1564304241696846E-12   -0.8400589460166863E-09
 -0.5457   0.0009    0.4623162086053392E-01    0.1049841770855512E-01    0.1200282654884510E-04    0.2919847441553851E+00   -0.9701243740304861E+01   -0.5639589508128058E-05    0.6583728701103908E-10    0.7089651088421078E-10   -0.1552993844633477E-12   -0.8359000089330770E-09
 -0.5575  -0.0255    0.5318393573927744E-01    0.9702527965509631E-02    0.1754790397852142E-04    0.3062523202382788E+00   -0.8961198159483416E+01   -0.5212933856483405E-05    0.2040922084112218E-09    0.6609157665593557E-10   -0.1635497293150934E-12   -0.8078788228671474E-09
 -0.5688  -0.0508    0.5871937386673558E-01    0.8663192956209714E-02    0.2249628781214781E-04    0.3212458712019788E+00   -0.7998405353984349E+01   -0.4655064436781355E-05    0.3338647969197694E-09    0.5920552936800050E-10   -0.1962596751781120E-12   -0.7606575699176110E-09
 -0.5796  -0.0751    0.6232332187444654E-01    0.7449699828588233E-02    0.2632542858244360E-04    0.3368498347186648E+00   -0.6876841259684110E+01   -0.4003248810999018E-05    0.4484634955059796E-09    0.5086120413722028E-10   -0.1941918847947477E-12   -0.6991393731309303E-09
 -0.5899  -0.0982    0.6371575378271377E-01    0.6150458796180310E-02    0.2863110035024961E-04    0.3529248321664801E+00   -0.5677781429169198E+01   -0.3305017312424672E-05    0.5436194480679113E-09    0.4186306856723832E-10   -0.2010891453352315E-12   -0.6279515813584213E-09
 -0.5996  -0.1201    0.6288943865323859E-01    0.4858889944141502E-02    0.2923876277363411E-04    0.3693079021163037E+00   -0.4486847965804974E+01   -0.2610735958373663E-05    0.6179357373015115E-09    0.3299416295732271E-10   -0.1940947402800930E-12   -0.5516039534858574E-09
 -0.6087  -0.1405    0.6008676137143171E-01    0.3658056056439336E-02    0.2823024428347760E-04    0.3858101620088844E+00   -0.3380090739710540E+01   -0.1965103520725754E-05    0.6725349374625544E-09    0.2489355943602334E-10   -0.1592892484580943E-12   -0.4739290817429298E-09
 -0.6171  -0.1594    0.5572685479408268E-01    0.2608953756587881E-02    0.2589948317250230E-04    0.4022117359031281E+00   -0.2413291276005111E+01   -0.1401061069047703E-05    0.7103196780766652E-09    0.1796848780877269E-10   -0.1870587018615311E-12   -0.3979375093332571E-09
 -0.6249  -0.1769    0.5031249846264869E-01    0.1745634735068855E-02    0.2263945934191737E-04    0.4182563656057285E+00   -0.1617637353124969E+01   -0.9368789240711673E-06    0.7348666050677188E-09    0.1237557278876977E-10   -0.1775940505766016E-12   -0.3266574354759966E-09
 -0.6319  -0.1926    0.4434723624852031E-01    0.1077145609773128E-02    0.1882910669073666E-04    0.4336507117585280E+00   -0.1001386619718160E+01   -0.5775247711770763E-06    0.7496955001240480E-09    0.8076640051202233E-11   -0.2081251837537934E-12   -0.2608592630098938E-09
 -0.6382  -0.2067    0.3828158663664977E-01    0.5938029778002471E-03    0.1475151041503379E-04    0.4480738325091037E+00   -0.5556800782457361E+00   -0.3176745168265678E-06    0.7578086907988890E-09    0.4930521269042032E-11   -0.2143840660551177E-12   -0.2016829949574861E-09
 -0.6437  -0.2191    0.3249041902695100E-01    0.2741584824413979E-03    0.1058704565322228E-04    0.4611990820741329E+00   -0.2606714720725992E+00   -0.1459414937173263E-06    0.7615955401052421E-09    0.2760302403315151E-11   -0.2240291285815488E-12   -0.1492350357873429E-09
 -0.6484  -0.2296    0.2727176762118674E-01    0.8989826270092919E-04    0.6488477225698437E-05    0.4727244220099752E+00   -0.9014139833938396E-01   -0.4696526104454227E-07    0.7628446329482896E-09    0.1390807607970501E-11   -0.2261003884118651E-12   -0.1043076389151132E-09
 -0.6522  -0.2383    0.2285137041135751E-01    0.7503289369969912E-05    0.2747968554109618E-05    0.4824013705399086E+00   -0.1275513166622010E-01   -0.3010691026450948E-08    0.7629992974239608E-09    0.6700334731490898E-12   -0.2659279046968166E-12   -0.6707793608756729E-10
 -0.6553  -0.2451    0.1938031904548398E-01   -0.1113345259898216E-04   -0.7577807001815018E-07    0.4900517370202244E+00    0.6740656752502185E-02    0.6673227177179630E-08    0.7631023207673978E-09    0.4054603874870111E-12   -0.2781965196402281E-12   -0.3772060268303346E-10
 -0.6574  -0.2499    0.1692395696388505E-01   -0.4921582671012312E-05   -0.1182093419119295E-05    0.4955665294885168E+00    0.3936113018594975E-02    0.2694707972279067E-08    0.7639268456097886E-09    0.3572545904939606E-12   -0.3102830492540676E-12   -0.1689871983664992E-10
 -0.6587  -0.2529    0.1546637021394296E-01   -0.2007140818313315E-06   -0.2007368244223722E-06    0.4988902045951841E+00    0.6996985172949049E-03    0.1710963392457630E-09    0.7652358884361818E-09    0.1978220105086637E-12   -0.2041756520798632E-12   -0.4127180747767051E-11
 -0.6592  -0.2538    0.1498102115522741E-01    0.0000000000000000E+00    0.0000000000000000E+00    0.5000000000000000E+00   -0.5865747505462280E-04    0.0000000000000000E+00    0.0000000000000000E+00    0.0000000000000000E+00    0.0000000000000000E+00    0.0000000000000000E+00
 -0.2495   0.6584    0.2606443608412685E-01    0.0000000000000000E+00    0.0000000000000000E+00   -0.5000000000000000E+00   -0.4546986875379025E-02    0.0000000000000000E+00    0.0000000000000000E+00    0.0000000000000000E+00    0.0000000000000000E+00    0.0000000000000000E+00
 -0.2499   0.6574    0.2654169344573641E-01    0.2011148727068996E-05   -0.6218046895009556E-05   -0.4951468916634574E+00   -0.7493667690293482E-02   -0.3065420527925382E-08    0.3626551489666063E-09   -0.1068734104036143E-11   -0.1475280401314061E-11    0.1041065335067454E-10
 -0.2512   0.6545    0.2794319161088272E-01    0.3153793866417383E-04   -0.3154214069160028E-04   -0.4806110733221456E+00   -0.1609950223555245E-01   -0.6264643870478515E-07    0.3606202628181343E-09   -0.3159607232967876E-11   -0.3587912952851546E-11    0.4230820728479134E-10
 -0.2534   0.6496    0.3019642417423377E-01    0.1527799843465684E-03   -0.6747409055517134E-04   -0.4564800784333257E+00   -0.3826634698184352E-01   -0.3334098725430405E-06    0.3573717329008463E-09   -0.4038779727322250E-11   -0.4404986791994858E-11    0.9512608582784576E-10
 -0.2564   0.6428    0.3321718449343728E-01    0.4244641565707399E-03   -0.9347189617178943E-04   -0.4229607449352908E+00   -0.8905598060406397E-01   -0.9460913372264997E-06    0.3545928203840809E-09   -0.3581818869280440E-11   -0.4578164236601623E-11    0.1695329900769371E-09
 -0.2603   0.6342    0.3689390367095394E-01    0.8453226061960465E-03   -0.1009466377511155E-03   -0.3804815024370101E+00   -0.1728741422571432E+00   -0.1885932251135955E-05    0.3528119602025370E-09   -0.2857207526130168E-11   -0.4446398110813377E-11    0.2668904333646971E-09
 -0.2650   0.6236    0.4104249074579229E-01    0.1351861332555639E-02   -0.9073226909836074E-04   -0.3298395356714763E+00   -0.2792200967242581E+00   -0.3003606869689649E-05    0.3516808025350038E-09   -0.2938850551803540E-11   -0.4204303571953005E-11    0.3900270800771821E-09
 -0.2705   0.6113    0.4538533336202045E-01    0.1847796353873127E-02   -0.6829956499825347E-04   -0.2723609580786399E+00   -0.3885174367470947E+00   -0.4083602079749488E-05    0.3503043757846491E-09   -0.4630275329819966E-11   -0.3926858838099179E-11    0.5423930055092896E-09
 -0.2767   0.5972    0.4955908067349848E-01    0.2241080652247050E-02   -0.4110490979624226E-04   -0.2100081053348536E+00   -0.4809034485446868E+00   -0.4923624361802822E-05    0.3473370653594987E-09   -0.8280688634787481E-11   -0.3693470876364735E-11    0.7301179383301104E-09