 title="result"
 variables="x","y","P","u","v","t","omega","psi","RES1","RES2","RES3","RES4"
zone,j= 49,i= 49,f=point
 -0.5000   0.5000    0.2250691178702212E-01    0.0000000000000000E+00    0.0000000000000000E+00   -0.5000000000000000E+00    0.0000000000000000E+00    0.0000000000000000E+00    0.0000000000000000E+00    0.0000000000000000E+00    0.0000000000000000E+00    0.0000000000000000E+00
 -0.5000   0.4989    0.2303742215116440E-01    0.0000000000000000E+00    0.0000000000000000E+00   -0.4963814787522154E+00   -0.3790175420898920E-03    0.0000000000000000E+00    0.0000000000000000E+00    0.0000000000000000E+00    0.0000000000000000E+00    0.0000000000000000E+00
 -0.5000   0.4957    0.2462502736381221E-01    0.0000000000000000E+00    0.0000000000000000E+00   -0.4855427477690421E+00   -0.4651531562841895E-02    0.0000000000000000E+00    0.0000000000000000E+00    0.0000000000000000E+00    0.0000000000000000E+00    0.0000000000000000E+00
 -0.5000   0.4904    0.2723847795734370E-01    0.0000000000000000E+00    0.0000000000000000E+00   -0.4675419904841839E+00   -0.1011106436453431E-02    0.0000000000000000E+00    0.0000000000000000E+00    0.0000000000000000E+00    0.0000000000000000E+00    0.0000000000000000E+00
 -0.5000   0.4830    0.3074303425843531E-01    0.0000000000000000E+00    0.0000000000000000E+00   -0.4424989619116237E+00    0.3560026311609302E-01    0.0000000000000000E+00    0.0000000000000000E+00    0.0000000000000000E+00    0.0000000000000000E+00    0.0000000000000000E+00
 -0.5000   0.4735    0.3487645212559949E-01    0.0000000000000000E+00    0.0000000000000000E+00   -0.4106176717558856E+00    0.1214032424265215E+00    0.0000000000000000E+00    0.0000000000000000E+00    0.0000000000000000E+00    0.0000000000000000E+00    0.0000000000000000E+00
 -0.5000   0.4619    0.3929875347878834E-01    0.0000000000000000E+00    0.0000000000000000E+00   -0.3722001466223337E+00    0.2545131312221993E+00    0.0000000000000000E+00    0.0000000000000000E+00    0.0000000000000000E+00    0.0000000000000000E+00    0.0000000000000000E+00
 -0.5000   0.4484    0.4363769925713441E-01    0.0000000000000000E+00    0.0000000000000000E+00   -0.3276545328912231E+00    0.4148418477311229E+00    0.0000000000000000E+00    0.0000000000000000E+00    0.0000000000000000E+00    0.0000000000000000E+00    0.0000000000000000E+00
 -0.5000   0.4330    0.4753383320892066E-01    0.0000000000000000E+00    0.0000000000000000E+00   -0.2775234378640815E+00    0.5684797823645624E+00    0.0000000000000000E+00    0.0000000000000000E+00    0.0000000000000000E+00    0.0000000000000000E+00    0.0000000000000000E+00
 -0.5000   0.4157    0.5067455363159338E-01    0.0000000000000000E+00    0.0000000000000000E+00   -0.2225699507681147E+00    0.6755786923771606E+00    0.0000000000000000E+00    0.0000000000000000E+00    0.0000000000000000E+00    0.0000000000000000E+00    0.0000000000000000E+00
 -0.5000   0.3967    0.5281554223888061E-01    0.0000000000000000E+00    0.0000000000000000E+00   -0.1639429774854260E+00    0.7000622340969365E+00    0.0000000000000000E+00    0.0000000000000000E+00    0.0000000000000000E+00    0.0000000000000000E+00    0.0000000000000000E+00
 -0.5000   0.3759    0.5378370107596517E-01    0.0000000000000000E+00    0.0000000000000000E+00   -0.1033914667064046E+00    0.6184701817950381E+00    0.0000000000000000E+00    0.0000000000000000E+00    0.0000000000000000E+00    0.0000000000000000E+00    0.0000000000000000E+00
 -0.5000   0.3536    0.5347045196096486E-01    0.0000000000000000E+00    0.0000000000000000E+00   -0.4341243788971116E-01    0.4238477504577970E+00    0.0000000000000000E+00    0.0000000000000000E+00    0.0000000000000000E+00    0.0000000000000000E+00    0.0000000000000000E+00
 -0.5000   0.3297    0.5182949639549248E-01    0.0000000000000000E+00    0.0000000000000000E+00    0.1285862582836097E-01    0.1225770926846658E+00    0.0000000000000000E+00    0.0000000000000000E+00    0.0000000000000000E+00    0.0000000000000000E+00    0.0000000000000000E+00
 -0.5000   0.3044    0.4889071164390747E-01    0.0000000000000000E+00    0.0000000000000000E+00    0.6217512141304390E-01   -0.2739290579991298E+00    0.0000000000000000E+00    0.0000000000000000E+00    0.0000000000000000E+00    0.0000000000000000E+00    0.0000000000000000E+00
 -0.5000   0.2778    0.4478042163036738E-01    0.0000000000000000E+00    0.0000000000000000E+00    0.1020558508500421E+00   -0.7572240567573107E+00    0.0000000000000000E+00    0.0000000000000000E+00    0.0000000000000000E+00    0.0000000000000000E+00    0.0000000000000000E+00
 -0.5000   0.2500    0.3972677297110617E-01    0.0000000000000000E+00    0.0000000000000000E+00    0.1316092955703964E+00   -0.1325144881134169E+01    0.0000000000000000E+00    0.0000000000000000E+00    0.0000000000000000E+00    0.0000000000000000E+00    0.0000000000000000E+00
 -0.5000   0.2211    0.3403876907381788E-01    0.0000000000000000E+00    0.0000000000000000E+00    0.1517869714483218E+00   -0.1979937387390249E+01    0.0000000000000000E+00    0.0000000000000000E+00    0.0000000000000000E+00    0.0000000000000000E+00    0.0000000000000000E+00
 -0.5000   0.1913    0.2807268443953335E-01    0.0000000000000000E+00    0.0000000000000000E+00    0.1648715020294318E+00   -0.2723372088578855E+01    0.0000000000000000E+00    0.0000000000000000E+00    0.0000000000000000E+00    0.0000000000000000E+00    0.0000000000000000E+00
 -0.5000   0.1607    0.2220529035034578E-01    0.0000000000000000E+00    0.0000000000000000E+00    0.1735351838259928E+00   -0.3550981914895051E+01    0.0000000000000000E+00    0.0000000000000000E+00    0.0000000000000000E+00    0.0000000000000000E+00    0.0000000000000000E+00
 -0.5000   0.1294    0.1681888923701534E-01    0.0000000000000000E+00    0.0000000000000000E+00    0.1800374598348700E+00   -0.4447374109891253E+01    0.0000000000000000E+00    0.0000000000000000E+00    0.0000000000000000E+00    0.0000000000000000E+00    0.0000000000000000E+00
 -0.5000   0.0975    0.1228735044673244E-01    0.0000000000000000E+00    0.0000000000000000E+00    0.1858918293785195E+00   -0.5384338762605049E+01    0.0000000000000000E+00    0.0000000000000000E+00    0.0000000000000000E+00    0.0000000000000000E+00    0.0000000000000000E+00
 -0.5000   0.0653    0.8953105577774447E-02    0.0000000000000000E+00    0.0000000000000000E+00    0.1919417724658741E+00   -0.6322351916275204E+01    0.0000000000000000E+00    0.0000000000000000E+00    0.0000000000000000E+00    0.0000000000000000E+00    0.0000000000000000E+00
 -0.5000   0.0327    0.7093686250546877E-02    0.0000000000000000E+00    0.0000000000000000E+00    0.1985991124230492E+00   -0.7214401156339510E+01    0.0000000000000000E+00    0.0000000000000000E+00    0.0000000000000000E+00    0.0000000000000000E+00    0.0000000000000000E+00
 -0.5000   0.0000    0.6884496001728845E-02    0.0000000000000000E+00    0.0000000000000000E+00    0.2060553129777285E+00   -0.8010476278025839E+01    0.0000000000000000E+00    0.0000000000000000E+00    0.0000000000000000E+00    0.0000000000000000E+00    0.0000000000000000E+00
 -0.5000  -0.0327    0.8365618287785724E-02    0.0000000000000000E+00    0.0000000000000000E+00    0.2144060529146376E+00   -0.8661528680057973E+01    0.0000000000000000E+00    0.0000000000000000E+00    0.0000000000000000E+00    0.0000000000000000E+00    0.0000000000000000E+00
 -0.5000  -0.0653    0.1141875617907993E-01    0.0000000000000000E+00    0.0000000000000000E+00    0.2237066173734803E+00   -0.9122728113836224E+01    0.0000000000000000E+00    0.0000000000000000E+00    0.0000000000000000E+00    0.0000000000000000E+00    0.0000000000000000E+00
 -0.5000  -0.0975    0.1575801788806186E-01    0.0000000000000000E+00    0.0000000000000000E+00    0.2339905140002889E+00   -0.9356540255337247E+01    0.0000000000000000E+00    0.0000000000000000E+00    0.0000000000000000E+00    0.0000000000000000E+00    0.0000000000000000E+00
 -0.5000  -0.1294    0.2093857711193839E-01    0.0000000000000000E+00    0.0000000000000000E+00    0.2452729303610745E+00   -0.9336342225684549E+01    0.0000000000000000E+00    0.0000000000000000E+00    0.0000000000000000E+00    0.0000000000000000E+00    0.0000000000000000E+00
 -0.5000  -0.1607    0.2638763578536124E-01    0.0000000000000000E+00    0.0000000000000000E+00    0.2575491896395454E+00   -0.9050755754194114E+01    0.0000000000000000E+00    0.0000000000000000E+00    0.0000000000000000E+00    0.0000000000000000E+00    0.0000000000000000E+00
 -0.5000  -0.1913    0.3146099148495381E-01    0.0000000000000000E+00    0.0000000000000000E+00    0.2707922724725101E+00   -0.8508017468474875E+01    0.0000000000000000E+00    0.0000000000000000E+00    0.0000000000000000E+00    0.0000000000000000E+00    0.0000000000000000E+00
 -0.5000  -0.2211    0.3552256180787231E-01    0.0000000000000000E+00    0.0000000000000000E+00    0.2849510344531602E+00   -0.7738785640123503E+01    0.0000000000000000E+00    0.0000000000000000E+00    0.0000000000000000E+00    0.0000000000000000E+00    0.0000000000000000E+00
 -0.5000  -0.2500    0.3803503581200258E-01    0.0000000000000000E+00    0.0000000000000000E+00    0.2999497108617251E+00   -0.6795523032451166E+01    0.0000000000000000E+00    0.0000000000000000E+00    0.0000000000000000E+00    0.0000000000000000E+00    0.0000000000000000E+00
 -0.5000  -0.2778    0.3864085352934486E-01    0.0000000000000000E+00    0.0000000000000000E+00    0.3156885269331204E+00   -0.5747242380237250E+01    0.0000000000000000E+00    0.0000000000000000E+00    0.0000000000000000E+00    0.0000000000000000E+00    0.0000000000000000E+00
 -0.5000  -0.3044    0.3721084913376130E-01    0.0000000000000000E+00    0.0000000000000000E+00    0.3320444635191317E+00   -0.4670063378654303E+01    0.0000000000000000E+00    0.0000000000000000E+00    0.0000000000000000E+00    0.0000000000000000E+00    0.0000000000000000E+00
 -0.5000  -0.3297    0.3384618543669651E-01    0.0000000000000000E+00    0.0000000000000000E+00    0.3488707066537914E+00   -0.3635826031420111E+01    0.0000000000000000E+00    0.0000000000000000E+00    0.0000000000000000E+00    0.0000000000000000E+00    0.0000000000000000E+00
 -0.5000  -0.3536    0.2883539440347552E-01    0.0000000000000000E+00    0.0000000000000000E+00    0.3659935209541121E+00   -0.2702047286554180E+01    0.0000000000000000E+00    0.0000000000000000E+00    0.0000000000000000E+00    0.0000000000000000E+00    0.0000000000000000E+00
 -0.5000  -0.3759    0.2258373467330428E-01    0.0000000000000000E+00    0.0000000000000000E+00    0.3832066040817013E+00   -0.1905968439819731E+01    0.0000000000000000E+00    0.0000000000000000E+00    0.0000000000000000E+00    0.0000000000000000E+00    0.0000000000000000E+00
 -0.5000  -0.3967    0.1553866662331848E-01    0.0000000000000000E+00    0.0000000000000000E+00    0.4002652151613177E+00   -0.1263758525062838E+01    0.0000000000000000E+00    0.0000000000000000E+00    0.0000000000000000E+00    0.0000000000000000E+00    0.0000000000000000E+00
 -0.5000  -0.4157    0.8130981954812610E-02    0.0000000000000000E+00    0.0000000000000000E+00    0.4168844616474723E+00   -0.7739549807099450E+00    0.0000000000000000E+00    0.0000000000000000E+00    0.0000000000000000E+00    0.0000000000000000E+00    0.0000000000000000E+00
 -0.5000  -0.4330    0.7401680466546809E-03    0.0000000000000000E+00    0.0000000000000000E+00    0.4327464620525023E+00   -0.4230560164337023E+00    0.0000000000000000E+00    0.0000000000000000E+00    0.0000000000000000E+00    0.0000000000000000E+00    0.0000000000000000E+00
 -0.5000  -0.4484   -0.6317715128193353E-02    0.0000000000000000E+00    0.0000000000000000E+00    0.4475185820638500E+00   -0.1910253997178271E+00    0.0000000000000000E+00    0.0000000000000000E+00    0.0000000000000000E+00    0.0000000000000000E+00    0.0000000000000000E+00
 -0.5000  -0.4619   -0.1278809398460557E-01    0.0000000000000000E+00    0.0000000000000000E+00    0.4608801794331190E+00   -0.5515650046453030E-01    0.0000000000000000E+00    0.0000000000000000E+00    0.0000000000000000E+00    0.0000000000000000E+00    0.0000000000000000E+00
 -0.5000  -0.4735   -0.1847106640137933E-01    0.0000000000000000E+00    0.0000000000000000E+00    0.4725506859722412E+00    0.8175146882431100E-02    0.0000000000000000E+00    0.0000000000000000E+00    0.0000000000000000E+00    0.0000000000000000E+00    0.0000000000000000E+00
 -0.5000  -0.4830   -0.2321808008312124E-01    0.0000000000000000E+00    0.0000000000000000E+00    0.4823102075214579E+00    0.2329487859274370E-01    0.0000000000000000E+00    0.0000000000000000E+00    0.0000000000000000E+00    0.0000000000000000E+00    0.0000000000000000E+00
 -0.5000  -0.4904   -0.2693373682022311E-01    0.0000000000000000E+00    0.0000000000000000E+00    0.4900064413157704E+00    0.1452969194245487E-01    0.0000000000000000E+00    0.0000000000000000E+00    0.0000000000000000E+00    0.0000000000000000E+00    0.0000000000000000E+00
 -0.5000  -0.4957   -0.2958005452358669E-01    0.0000000000000000E+00    0.0000000000000000E+00    0.4955474377098155E+00    0.3248554649017400E-02    0.0000000000000000E+00    0.0000000000000000E+00    0.0000000000000000E+00    0.0000000000000000E+00    0.0000000000000000E+00
 -0.5000  -0.4989   -0.3116787150972929E-01    0.0000000000000000E+00    0.0000000000000000E+00    0.4988854900801886E+00   -0.1586965016804139E-03    0.0000000000000000E+00    0.0000000000000000E+00    0.0000000000000000E+00    0.0000000000000000E+00    0.0000000000000000E+00
 -0.5000  -0.5000   -0.3170089725686411E-01    0.0000000000000000E+00    0.0000000000000000E+00    0.5000000000000000E+00    0.0000000000000000E+00    0.0000000000000000E+00    0.0000000000000000E+00    0.0000000000000000E+00    0.0000000000000000E+00    0.0000000000000000E+00
 -0.4989   0.5000    0.2250973255060018E-01    0.0000000000000000E+00    0.0000000000000000E+00   -0.5000000000000000E+00   -0.3789837179610697E-03    0.0000000000000000E+00    0.0000000000000000E+00    0.0000000000000000E+00    0.0000000000000000E+00    0.0000000000000000E+00
 -0.4989   0.4989    0.2304024346651351E-01    0.3624707024464774E-06   -0.3624826352344993E-06   -0.4963814114866403E+00   -0.5565648492592513E-03   -0.2580621361407815E-09   -0.5505795350885245E-09   -0.2902263932652582E-12   -0.2959407892355603E-12    0.6404049437015030E-11
 -0.4989   0.4957    0.2462594131191164E-01    0.3280202458489555E-05   -0.4432898872537836E-06   -0.4855424817319512E+00   -0.1414603142241263E-02   -0.2003784282235986E-08   -0.5526433962147956E-09   -0.5911720765694461E-12   -0.4347430745680800E-12    0.2546573173688171E-10
 -0.4989   0.4904    0.2723101322838768E-01   -0.2304581348440436E-05    0.1502795941284205E-05   -0.4675414170138305E+00    0.5477498560151103E-02    0.6165780861232206E-09   -0.5548147813567994E-09   -0.6544504521643901E-12   -0.4313962381763403E-12    0.5682871404358303E-10
 -0.4989   0.4830    0.3072336724613203E-01   -0.4103538734579950E-04    0.3969977949036118E-05   -0.4424980289878033E+00    0.4114548630708780E-01    0.2148486511874086E-07   -0.5571007509475034E-09   -0.6020496601255587E-12   -0.4284281263089440E-12    0.1012854548496089E-09
 -0.4989   0.4735    0.3484721194016226E-01   -0.1302645136573686E-03    0.5955884548695925E-05   -0.4106163880810741E+00    0.1220162018904062E+00    0.6966305310571679E-07   -0.5600099186459095E-09   -0.3430858570331596E-12   -0.4544871423650676E-12    0.1596617699162195E-09
 -0.4989   0.4619    0.3926525814152915E-01   -0.2687020160885776E-03    0.6794967294527739E-05   -0.3721985366885200E+00    0.2474801866809750E+00    0.1445156447647098E-06   -0.5635707456264072E-09    0.1997048360014020E-12   -0.5027714355954060E-12    0.2338517001571061E-09
 -0.4989   0.4484    0.4360639929578785E-01   -0.4357076091863581E-03    0.6360258159914729E-05   -0.3276525621367516E+00    0.3991349704781423E+00    0.2347023834783679E-06   -0.5678601547320916E-09    0.1077526956549946E-11   -0.4742768677790110E-12    0.3260545687611138E-09
 -0.4989   0.4330    0.4751061634947274E-01   -0.5958319429306261E-03    0.4709221368271611E-05   -0.2775209427207432E+00    0.5446169219620938E+00    0.3212067912112509E-06   -0.5728887590011889E-09    0.2322413095168230E-11   -0.4747383042236208E-12    0.4386252298871351E-09
 -0.4989   0.4157    0.5066383715950452E-01   -0.7071037315495500E-03    0.2186428759958186E-05   -0.2225666095898673E+00    0.6453965736906492E+00    0.3813508616607760E-06   -0.5788291478070473E-09    0.3954711558229462E-11   -0.4947622173068211E-12    0.5722609330849338E-09
 -0.4989   0.3967    0.5281942764021804E-01   -0.7313013965068464E-03   -0.7732036509223839E-06   -0.1639383552463775E+00    0.6661161638219119E+00    0.3946780201882913E-06   -0.5859285487352928E-09    0.5972375372031991E-11   -0.4734294553609963E-12    0.7218615497017744E-09
 -0.4989   0.3759    0.5380196319823916E-01   -0.6433197178087773E-03   -0.3671101932427393E-05   -0.1033851606278254E+00    0.5833513299240870E+00    0.3476858314144823E-06   -0.5944716177652687E-09    0.8340189650013485E-11   -0.4694578059627474E-12    0.8708842466620403E-09
 -0.4989   0.3536    0.5350109914573647E-01   -0.4353913245984543E-03   -0.6173633378951421E-05   -0.4340431705360068E-01    0.3895250390883894E+00    0.2363260578670743E-06   -0.6044380846531583E-09    0.1097670565552988E-10   -0.4549451093627255E-12    0.9860823824148213E-09
 -0.4989   0.3297    0.5186997803250232E-01   -0.1138914832644923E-03   -0.8150462326395134E-05    0.1286817944242345E-01    0.9017535052681593E-01    0.6404677329456258E-07   -0.6149808318839378E-09    0.1377807590241531E-10   -0.4310857226741405E-12    0.1018389733653535E-08
 -0.4989   0.3044    0.4893893305839862E-01    0.3093054441030152E-03   -0.9711468414163489E-05    0.6218515232612956E-01   -0.3039395597527536E+00   -0.1626959584593251E-06   -0.6237314310875153E-09    0.1663814919172779E-10   -0.3806052695232154E-12    0.9135556616746143E-09
 -0.4989   0.2778    0.4483528191041207E-01    0.8252522524420541E-03   -0.1104488312719756E-04    0.1020650920768933E+00   -0.7845415122469730E+00   -0.4391300248201550E-06   -0.6266553838341071E-09    0.1943335770082655E-10   -0.3506014922827205E-12    0.6354730561208832E-09
 -0.4989   0.2500    0.3978797782754193E-01    0.1431484181962306E-02   -0.1232618913824928E-04    0.1316166670726549E+00   -0.1349195204300575E+01   -0.7639326804250562E-06   -0.6188078105484607E-09    0.2201696464032565E-10   -0.2181102520815159E-12    0.1886812095452939E-09
 -0.4989   0.2211    0.3410636911049880E-01    0.2130087151275155E-02   -0.1361500010455342E-04    0.1517919979647323E+00   -0.1999543623341209E+01   -0.1138303109063562E-05   -0.5957101270603893E-09    0.2422747419350557E-10   -0.1515038094979104E-12   -0.3761093103626933E-09
 -0.4989   0.1913    0.2814647511613720E-01    0.2922536675846693E-02   -0.1486942145631895E-04    0.1648743741944231E+00   -0.2736577011924966E+01   -0.1563082841792781E-05   -0.5545548464880312E-09    0.2589818637321883E-10   -0.3111400026512001E-13   -0.9802852696250142E-09
 -0.4989   0.1607    0.2228436595167253E-01    0.3803613962500988E-02   -0.1593986825720346E-04    0.1735364845587772E+00   -0.3555007230461354E+01   -0.2035576339160153E-05   -0.4946969049679506E-09    0.2680620135586675E-10    0.1026678742022114E-12   -0.1547618146482965E-08
 -0.4989   0.1294    0.1690136150290925E-01    0.4756498221703110E-02   -0.1663511018318332E-04    0.1800378128162690E+00   -0.4438805836432180E+01   -0.2546823310980378E-05   -0.4175718035237530E-09    0.2665242679333879E-10    0.2002148447033392E-12   -0.2027537904063237E-08
 -0.4989   0.0975    0.1237040495509147E-01    0.5750853270284395E-02   -0.1676091664448547E-04    0.1858916898959360E+00   -0.5359505563027730E+01   -0.3080625553003181E-05   -0.3263398544450791E-09    0.2509906865677536E-10    0.3166772399865181E-12   -0.2400102553116665E-08
 -0.4989   0.0653    0.9033231658682313E-02    0.6744497273468066E-02   -0.1618181386132178E-04    0.1919413952384088E+00   -0.6277828802890046E+01   -0.3614367964799830E-05   -0.2256548906065525E-09    0.2186267833437228E-10    0.3747557819622216E-12   -0.2667643599508357E-08
 -0.4989   0.0327    0.7167027995463487E-02    0.7687504330467502E-02   -0.1482167401965690E-04    0.1985986111033068E+00   -0.7147514386431198E+01   -0.4121266443229869E-05   -0.1212249536863830E-09    0.1688094108942551E-10    0.4327371794232704E-12   -0.2844177152475091E-08
 -0.4989   0.0000    0.6947117253409610E-02    0.8526974461489175E-02   -0.1266827184632187E-04    0.2060547279226036E+00   -0.7919745720006480E+01   -0.4572881878106848E-05   -0.1932400767179487E-10    0.1032970931014177E-10    0.4621927840453566E-12   -0.2945095612695570E-08
 -0.4989  -0.0327    0.8413727008590464E-02    0.9211220730496043E-02   -0.9745306222929606E-05    0.2144053944315565E+00   -0.8547008425650679E+01   -0.4941409209735227E-05    0.7381162347996906E-10    0.2602362769721367E-11    0.3956210359312706E-12   -0.2985255835065426E-08
 -0.4989  -0.0653    0.1144884800614688E-01    0.9693196859408027E-02   -0.6114175906488250E-05    0.2237058861938950E+00   -0.8986240573719229E+01   -0.5201491042650444E-05    0.1528173750736661E-09   -0.5729805518939202E-11    0.3342673360329229E-12   -0.2976493127491986E-08
 -0.4989  -0.0975    0.1576709136163832E-01    0.9933727324270364E-02   -0.1871979091820080E-05    0.2339897092658595E+00   -0.9201788526491800E+01   -0.5331982947426296E-05    0.2137903599812307E-09   -0.1400740634593944E-10    0.2107290036912346E-12   -0.2927374552832984E-08
 -0.4989  -0.1294    0.2092440812187840E-01    0.9905285928778939E-02    0.2821353535271696E-05    0.2452720523370255E+00   -0.9168849924135028E+01   -0.5317974480942739E-05    0.2548904108612415E-09   -0.2155359224431663E-10    0.4488943938785184E-13   -0.2845216366328951E-08
 -0.4989  -0.1607    0.2634918956971819E-01    0.9596507106788050E-02    0.7728805833848923E-05    0.2575482403423421E+00   -0.8877571528163214E+01   -0.5153237744470481E-05    0.2765298753870660E-09   -0.2772931884109653E-10   -0.1644448466286974E-12   -0.2735196069636459E-08
 -0.4989  -0.1913    0.3139882413170789E-01    0.9016703276545756E-02    0.1252576249816135E-04    0.2707912552454438E+00   -0.8337113073865016E+01   -0.4842670211622016E-05    0.2813989735672706E-09   -0.3199557285782362E-10   -0.3608086052153681E-12   -0.2601486375278239E-08
 -0.4989  -0.2211    0.3543913665586488E-01    0.8198718763385765E-02    0.1682836462677245E-04    0.2849499528098583E+00   -0.7578179539770360E+01   -0.4403845522082782E-05    0.2741703461484057E-09   -0.3397387926540318E-10   -0.5455635943008019E-12   -0.2448028999998964E-08
 -0.4989  -0.2500    0.3793471513307706E-01    0.7198186739670019E-02    0.2024926970113724E-04    0.2999485669345577E+00   -0.6652239756461159E+01   -0.3866642142563295E-05    0.2607097385198820E-09   -0.3356054323333524E-10   -0.7839145999000152E-12   -0.2277901020586448E-08
 -0.4989  -0.2778    0.3852953412997749E-01    0.6087953067132626E-02    0.2247874383133965E-04    0.3156873201634935E+00   -0.5626376276152960E+01   -0.3270229138798035E-05    0.2468948448464126E-09   -0.3094452472041098E-10   -0.9360567876370851E-12   -0.2094229950913573E-08
 -0.4989  -0.3044    0.3709519823268036E-01    0.4948155769409044E-02    0.2335846123756614E-04    0.3320431905363879E+00   -0.4574178443666686E+01   -0.2657753039504107E-05    0.2375339369642404E-09   -0.2661287856753347E-10   -0.1093541923680164E-11   -0.1900032608678770E-08
 -0.4989  -0.3297    0.3373273596806880E-01    0.3854316029070988E-02    0.2291623554757988E-04    0.3488693633082992E+00   -0.3564900829424508E+01   -0.2069871305182328E-05    0.2353866268567373E-09   -0.2124631026667601E-10   -0.1176420072468431E-11   -0.1698730277971405E-08
 -0.4989  -0.3536    0.2872968298741422E-01    0.2866856651181067E-02    0.2135307567465135E-04    0.3659921069602430E+00   -0.2653900558449298E+01   -0.1539148905956299E-05    0.2410347060832763E-09   -0.1558753126573720E-10   -0.1214348066547188E-11   -0.1494165090265565E-08
 -0.4989  -0.3759    0.2248979205122928E-01    0.2024901391743144E-02    0.1897409421238126E-04    0.3832051295970086E+00   -0.1877036274026361E+01   -0.1086638096786885E-05    0.2531177489828451E-09   -0.1029454299583676E-10   -0.1250513581574353E-11   -0.1290396733910626E-08
 -0.4989  -0.3967    0.1545886925043820E-01    0.1345451601901652E-02    0.1611513720997612E-04    0.4002637072006657E+00   -0.1249889738370941E+01   -0.7215218064086713E-06    0.2692282646821198E-09   -0.5833465654969672E-11   -0.1224215173678544E-11   -0.1091153459253924E-08
 -0.4989  -0.4157    0.8066301521726453E-02    0.8269819151224723E-03    0.1305894203432520E-04    0.4168829672315515E+00   -0.7710883885983872E+00   -0.4429417368254328E-06    0.2866808665458187E-09   -0.2426220682694158E-11   -0.1216804434989172E-11   -0.9005152370317182E-09
 -0.4989  -0.4330    0.6905634499440008E-03    0.4552794321047168E-03    0.1001320909753498E-04    0.4327450452816421E+00   -0.4275644884399961E+00   -0.2432909814724120E-06    0.3032829126725645E-09   -0.1007093713978335E-12   -0.1187737408425704E-11   -0.7223048027749090E-09
 -0.4989  -0.4484   -0.6352860650045557E-02    0.2091873625197673E-03    0.7088462768995014E-05    0.4475173141943373E+00   -0.1998527310072929E+00   -0.1111376261485551E-06    0.3175310691466704E-09    0.1275240330000926E-11   -0.1149282058410250E-11   -0.5596073743285856E-09
 -0.4989  -0.4619   -0.1280978459426846E-01    0.6464258159344149E-04    0.4369325112489765E-05    0.4608791238937318E+00   -0.6567418192480179E-01   -0.3362855267413809E-07    0.3288360538727941E-09    0.1911679148314249E-11   -0.1134758953469372E-11   -0.4146690222098237E-09
 -0.4989  -0.4735   -0.1848080673471466E-01   -0.3486206875244398E-05    0.1939578546645192E-05    0.4725498828151556E+00   -0.1742688971355079E-02    0.2809311549637076E-08    0.3371535728553809E-09    0.2056070591560655E-11   -0.1101565019756556E-11   -0.2897866209147781E-09
 -0.4989  -0.4830   -0.2321837108930290E-01   -0.2106247687486724E-04    0.3506350170628024E-07    0.4823096628646169E+00    0.1600795082902684E-01    0.1192953409665561E-07    0.3431938853384279E-09    0.1934542803727624E-11   -0.1115328098974522E-11   -0.1865682881622976E-09
 -0.4989  -0.4904   -0.2692887419092282E-01   -0.1379955726248887E-04   -0.1054417272333186E-05    0.4900061260855295E+00    0.1118120289540354E-01    0.7738929046576808E-08    0.3477691544028633E-09    0.1725478267211589E-11   -0.1085698371483534E-11   -0.1053115580851305E-09
 -0.4989  -0.4957   -0.2957616434689759E-01   -0.3516093704155437E-05   -0.9924147848182515E-06    0.4955472963746089E+00    0.3437051000502001E-02    0.1834240635427145E-08    0.3526815549673157E-09    0.1497206655529104E-11   -0.1113702879917966E-11   -0.4700356325947758E-10
 -0.4989  -0.4989   -0.3116622879678689E-01   -0.6863730695049897E-07   -0.6893991556754920E-07    0.4988854547029253E+00    0.4487431821275354E-03    0.6187553539701202E-10    0.3578681189277469E-09    0.7707583486379899E-12   -0.7896868922663280E-12   -0.1119596478244347E-10
 -0.4989  -0.5000   -0.3169925534323523E-01    0.0000000000000000E+00    0.0000000000000000E+00    0.5000000000000000E+00   -0.1581208897600824E-03    0.0000000000000000E+00    0.0000000000000000E+00    0.0000000000000000E+00    0.0000000000000000E+00    0.0000000000000000E+00
 -0.4957   0.5000    0.2249666010629755E-01    0.0000000000000000E+00    0.0000000000000000E+00   -0.5000000000000000E+00   -0.4651751622364494E-02    0.0000000000000000E+00    0.0000000000000000E+00    0.0000000000000000E+00    0.0000000000000000E+00    0.0000000000000000E+00
 -0.4957   0.4989    0.2302907552420502E-01    0.4433880841001384E-06   -0.3280586684348465E-05   -0.4963804034980435E+00   -0.1415130614280009E-02   -0.2003985002603236E-08   -0.5525664710948758E-09   -0.4303905322411428E-12   -0.5524029584452750E-12    0.6508088826965436E-11
 -0.4957   0.4957    0.2461476761114595E-01   -0.8804124339196155E-06    0.8823291853378365E-06   -0.4855384915288115E+00    0.6798452225458199E-02   -0.1007373212628138E-07   -0.5533547487411583E-09   -0.1367166362759020E-11   -0.1308589521464842E-11    0.2527733209377325E-10
 -0.4957   0.4904    0.2720513004045603E-01   -0.3878937636905415E-04    0.2577332161750911E-04   -0.4675327511730103E+00    0.2132547437532813E-01    0.5706281811136381E-07   -0.5549144876243473E-09   -0.1971953850210539E-11   -0.1621586545597076E-11    0.5668486686982721E-10
 -0.4957   0.4830    0.3067029570521481E-01   -0.1902596864522666E-03    0.6074818710711897E-04   -0.4424836723227132E+00    0.5488833391194763E-01    0.3838774202644671E-06   -0.5570167417590088E-09   -0.1918371711484568E-11   -0.1829397744401717E-11    0.1013544222508433E-09
 -0.4957   0.4735    0.3476972466088005E-01   -0.5195718593138359E-03    0.8971918555341799E-04   -0.4105960980304749E+00    0.1222927896977512E+00    0.1113117232510828E-05   -0.5597431476656034E-09   -0.1014811065042087E-11   -0.2004035826175254E-11    0.1596695397426684E-09
 -0.4957   0.4619    0.3917609156154604E-01   -0.1028034142104057E-02    0.1027209931438681E-03   -0.3721723179326203E+00    0.2262450299657937E+00    0.2242290840998807E-05   -0.5631690391805222E-09    0.9904195519272463E-12   -0.2175915697621988E-11    0.2340762861319234E-09
 -0.4957   0.4484    0.4352261447305163E-01   -0.1642908505446289E-02    0.9620078829628955E-04   -0.3276197059759593E+00    0.3529242027125831E+00    0.3606482767045244E-05   -0.5673198091860066E-09    0.4294710420627013E-11   -0.2340110744070145E-11    0.3261654626940391E-09
 -0.4957   0.4330    0.4744870110218726E-01   -0.2232547660460741E-02    0.7118295493093379E-04   -0.2774791030488815E+00    0.4746679939324600E+00    0.4914904064507869E-05   -0.5722326362755936E-09    0.9022942115688437E-11   -0.2468844573222384E-11    0.4388376051434051E-09