 title="result"
 variables="x","y","P","u","v","t","omega","psi","RES1","RES2","RES3","RES4"
zone,j= 49,i= 49,f=point
 -0.3928   0.5879    0.2512456701915430E-01    0.0000000000000000E+00    0.0000000000000000E+00   -0.5000000000000000E+00    0.0000000000000000E+00    0.0000000000000000E+00    0.0000000000000000E+00    0.0000000000000000E+00    0.0000000000000000E+00    0.0000000000000000E+00
 -0.3931   0.5869    0.2564572752813972E-01    0.0000000000000000E+00    0.0000000000000000E+00   -0.4957555377760863E+00   -0.8496219685984870E-04    0.0000000000000000E+00    0.0000000000000000E+00    0.0000000000000000E+00    0.0000000000000000E+00    0.0000000000000000E+00
 -0.3937   0.5837    0.2718455065395289E-01    0.0000000000000000E+00    0.0000000000000000E+00   -0.4830423026256889E+00   -0.4229086256680742E-02    0.0000000000000000E+00    0.0000000000000000E+00    0.0000000000000000E+00    0.0000000000000000E+00    0.0000000000000000E+00
 -0.3947   0.5785    0.2968294528360213E-01    0.0000000000000000E+00    0.0000000000000000E+00   -0.4619325065094976E+00   -0.1490439529894612E-01    0.0000000000000000E+00    0.0000000000000000E+00    0.0000000000000000E+00    0.0000000000000000E+00    0.0000000000000000E+00
 -0.3962   0.5712    0.3302835628288453E-01    0.0000000000000000E+00    0.0000000000000000E+00   -0.4325852153573563E+00   -0.2522810219718766E-01    0.0000000000000000E+00    0.0000000000000000E+00    0.0000000000000000E+00    0.0000000000000000E+00    0.0000000000000000E+00
 -0.3980   0.5619    0.3701977354220178E-01    0.0000000000000000E+00    0.0000000000000000E+00   -0.3953014782126613E+00   -0.2610502140188395E-01    0.0000000000000000E+00    0.0000000000000000E+00    0.0000000000000000E+00    0.0000000000000000E+00    0.0000000000000000E+00
 -0.4003   0.5506    0.4137904445262405E-01    0.0000000000000000E+00    0.0000000000000000E+00   -0.3505944036053417E+00   -0.1285693948395449E-01    0.0000000000000000E+00    0.0000000000000000E+00    0.0000000000000000E+00    0.0000000000000000E+00    0.0000000000000000E+00
 -0.4029   0.5374    0.4577185132118584E-01    0.0000000000000000E+00    0.0000000000000000E+00   -0.2992690484106459E+00    0.1276060523079028E-01    0.0000000000000000E+00    0.0000000000000000E+00    0.0000000000000000E+00    0.0000000000000000E+00    0.0000000000000000E+00
 -0.4059   0.5222    0.4983367868941714E-01    0.0000000000000000E+00    0.0000000000000000E+00   -0.2425074944404776E+00    0.4229968584550303E-01    0.0000000000000000E+00    0.0000000000000000E+00    0.0000000000000000E+00    0.0000000000000000E+00    0.0000000000000000E+00
 -0.4093   0.5053    0.5320014980682700E-01    0.0000000000000000E+00    0.0000000000000000E+00   -0.1819479362767441E+00    0.6130943379389268E-01    0.0000000000000000E+00    0.0000000000000000E+00    0.0000000000000000E+00    0.0000000000000000E+00    0.0000000000000000E+00
 -0.4130   0.4866    0.5554298120096914E-01    0.0000000000000000E+00    0.0000000000000000E+00   -0.1197297741923364E+00    0.5060779354343817E-01    0.0000000000000000E+00    0.0000000000000000E+00    0.0000000000000000E+00    0.0000000000000000E+00    0.0000000000000000E+00
 -0.4171   0.4662    0.5660836752717816E-01    0.0000000000000000E+00    0.0000000000000000E+00   -0.5845478528604767E-01   -0.1109206530583564E-01    0.0000000000000000E+00    0.0000000000000000E+00    0.0000000000000000E+00    0.0000000000000000E+00    0.0000000000000000E+00
 -0.4214   0.4443    0.5624920351754247E-01    0.0000000000000000E+00    0.0000000000000000E+00   -0.1001211662449288E-02   -0.1432812197429709E+00    0.0000000000000000E+00    0.0000000000000000E+00    0.0000000000000000E+00    0.0000000000000000E+00    0.0000000000000000E+00
 -0.4261   0.4209    0.5444088148798606E-01    0.0000000000000000E+00    0.0000000000000000E+00    0.4985332979087199E-01   -0.3600848464705063E+00    0.0000000000000000E+00    0.0000000000000000E+00    0.0000000000000000E+00    0.0000000000000000E+00    0.0000000000000000E+00
 -0.4310   0.3961    0.5127680314488020E-01    0.0000000000000000E+00    0.0000000000000000E+00    0.9196613830387160E-01   -0.6694180813327609E+00    0.0000000000000000E+00    0.0000000000000000E+00    0.0000000000000000E+00    0.0000000000000000E+00    0.0000000000000000E+00
 -0.4362   0.3700    0.4694834692249145E-01    0.0000000000000000E+00    0.0000000000000000E+00    0.1243566464659193E+00   -0.1075333641124834E+01    0.0000000000000000E+00    0.0000000000000000E+00    0.0000000000000000E+00    0.0000000000000000E+00    0.0000000000000000E+00
 -0.4416   0.3427    0.4171828828679806E-01    0.0000000000000000E+00    0.0000000000000000E+00    0.1474669706398806E+00   -0.1581152465208441E+01    0.0000000000000000E+00    0.0000000000000000E+00    0.0000000000000000E+00    0.0000000000000000E+00    0.0000000000000000E+00
 -0.4472   0.3144    0.3589533624749854E-01    0.0000000000000000E+00    0.0000000000000000E+00    0.1629655343132005E+00   -0.2190218082170436E+01    0.0000000000000000E+00    0.0000000000000000E+00    0.0000000000000000E+00    0.0000000000000000E+00    0.0000000000000000E+00
 -0.4531   0.2852    0.2981532163060353E-01    0.0000000000000000E+00    0.0000000000000000E+00    0.1731531039504093E+00   -0.2903359645519931E+01    0.0000000000000000E+00    0.0000000000000000E+00    0.0000000000000000E+00    0.0000000000000000E+00    0.0000000000000000E+00
 -0.4590   0.2552    0.2383103106609041E-01    0.0000000000000000E+00    0.0000000000000000E+00    0.1802742529766090E+00   -0.3714691895794496E+01    0.0000000000000000E+00    0.0000000000000000E+00    0.0000000000000000E+00    0.0000000000000000E+00    0.0000000000000000E+00
 -0.4651   0.2245    0.1830667146400985E-01    0.0000000000000000E+00    0.0000000000000000E+00    0.1860569537537628E+00   -0.4608189939028488E+01    0.0000000000000000E+00    0.0000000000000000E+00    0.0000000000000000E+00    0.0000000000000000E+00    0.0000000000000000E+00
 -0.4714   0.1932    0.1360828658019714E-01    0.0000000000000000E+00    0.0000000000000000E+00    0.1915986067720556E+00   -0.5556626945526842E+01    0.0000000000000000E+00    0.0000000000000000E+00    0.0000000000000000E+00    0.0000000000000000E+00    0.0000000000000000E+00
 -0.4777   0.1616    0.1008372751493749E-01    0.0000000000000000E+00    0.0000000000000000E+00    0.1974951924860633E+00   -0.6523089295761691E+01    0.0000000000000000E+00    0.0000000000000000E+00    0.0000000000000000E+00    0.0000000000000000E+00    0.0000000000000000E+00
 -0.4840   0.1296    0.8032652114192655E-02    0.0000000000000000E+00    0.0000000000000000E+00    0.2040388290477445E+00   -0.7464135343664081E+01    0.0000000000000000E+00    0.0000000000000000E+00    0.0000000000000000E+00    0.0000000000000000E+00    0.0000000000000000E+00
 -0.4904   0.0975    0.7672489724589335E-02    0.0000000000000000E+00    0.0000000000000000E+00    0.2113717726263347E+00   -0.8333270855583409E+01    0.0000000000000000E+00    0.0000000000000000E+00    0.0000000000000000E+00    0.0000000000000000E+00    0.0000000000000000E+00
 -0.4968   0.0655    0.9106785029994824E-02    0.0000000000000000E+00    0.0000000000000000E+00    0.2195718443980545E+00   -0.9083772696576453E+01    0.0000000000000000E+00    0.0000000000000000E+00    0.0000000000000000E+00    0.0000000000000000E+00    0.0000000000000000E+00
 -0.5031   0.0335    0.1229990493592482E-01    0.0000000000000000E+00    0.0000000000000000E+00    0.2286886921066981E+00   -0.9670710063875136E+01    0.0000000000000000E+00    0.0000000000000000E+00    0.0000000000000000E+00    0.0000000000000000E+00    0.0000000000000000E+00
 -0.5094   0.0019    0.1706006000787670E-01    0.0000000000000000E+00    0.0000000000000000E+00    0.2387550310372623E+00   -0.1005276066568355E+02    0.0000000000000000E+00    0.0000000000000000E+00    0.0000000000000000E+00    0.0000000000000000E+00    0.0000000000000000E+00
 -0.5156  -0.0294    0.2303328139985972E-01    0.0000000000000000E+00    0.0000000000000000E+00    0.2497877039345390E+00   -0.1019476507056303E+02    0.0000000000000000E+00    0.0000000000000000E+00    0.0000000000000000E+00    0.0000000000000000E+00    0.0000000000000000E+00
 -0.5217  -0.0601    0.2971349852302694E-01    0.0000000000000000E+00    0.0000000000000000E+00    0.2617852934036438E+00   -0.1007170357489161E+02    0.0000000000000000E+00    0.0000000000000000E+00    0.0000000000000000E+00    0.0000000000000000E+00    0.0000000000000000E+00
 -0.5277  -0.0901    0.3647578613741597E-01    0.0000000000000000E+00    0.0000000000000000E+00    0.2747250278485274E+00   -0.9673995289796780E+01    0.0000000000000000E+00    0.0000000000000000E+00    0.0000000000000000E+00    0.0000000000000000E+00    0.0000000000000000E+00
 -0.5335  -0.1193    0.4263769435827162E-01    0.0000000000000000E+00    0.0000000000000000E+00    0.2885602547981990E+00   -0.9012916959092612E+01    0.0000000000000000E+00    0.0000000000000000E+00    0.0000000000000000E+00    0.0000000000000000E+00    0.0000000000000000E+00
 -0.5392  -0.1477    0.4754580092655755E-01    0.0000000000000000E+00    0.0000000000000000E+00    0.3032191751089705E+00   -0.8124009775484142E+01    0.0000000000000000E+00    0.0000000000000000E+00    0.0000000000000000E+00    0.0000000000000000E+00    0.0000000000000000E+00
 -0.5446  -0.1749    0.5067266626945312E-01    0.0000000000000000E+00    0.0000000000000000E+00    0.3186050097934511E+00   -0.7066178596211983E+01    0.0000000000000000E+00    0.0000000000000000E+00    0.0000000000000000E+00    0.0000000000000000E+00    0.0000000000000000E+00
 -0.5498  -0.2010    0.5169944939544312E-01    0.0000000000000000E+00    0.0000000000000000E+00    0.3345970722273920E+00   -0.5915260260396633E+01    0.0000000000000000E+00    0.0000000000000000E+00    0.0000000000000000E+00    0.0000000000000000E+00    0.0000000000000000E+00
 -0.5547  -0.2258    0.5055874620307600E-01    0.0000000000000000E+00    0.0000000000000000E+00    0.3510514992368380E+00   -0.4752945975166016E+01    0.0000000000000000E+00    0.0000000000000000E+00    0.0000000000000000E+00    0.0000000000000000E+00    0.0000000000000000E+00
 -0.5594  -0.2492    0.4742429559628603E-01    0.0000000000000000E+00    0.0000000000000000E+00    0.3678001010305644E+00   -0.3654072664065064E+01    0.0000000000000000E+00    0.0000000000000000E+00    0.0000000000000000E+00    0.0000000000000000E+00    0.0000000000000000E+00
 -0.5637  -0.2712    0.4265371977824981E-01    0.0000000000000000E+00    0.0000000000000000E+00    0.3846464559781022E+00   -0.2676167333131567E+01    0.0000000000000000E+00    0.0000000000000000E+00    0.0000000000000000E+00    0.0000000000000000E+00    0.0000000000000000E+00
 -0.5678  -0.2915    0.3670683316237008E-01    0.0000000000000000E+00    0.0000000000000000E+00    0.4013602268854206E+00   -0.1854112372342889E+01    0.0000000000000000E+00    0.0000000000000000E+00    0.0000000000000000E+00    0.0000000000000000E+00    0.0000000000000000E+00
 -0.5715  -0.3102    0.3006644663412213E-01    0.0000000000000000E+00    0.0000000000000000E+00    0.4176731454215109E+00   -0.1200580733501027E+01    0.0000000000000000E+00    0.0000000000000000E+00    0.0000000000000000E+00    0.0000000000000000E+00    0.0000000000000000E+00
 -0.5749  -0.3271    0.2318095701660385E-01    0.0000000000000000E+00    0.0000000000000000E+00    0.4332817153927008E+00   -0.7106793935083857E+00    0.0000000000000000E+00    0.0000000000000000E+00    0.0000000000000000E+00    0.0000000000000000E+00    0.0000000000000000E+00
 -0.5779  -0.3423    0.1643487359463612E-01    0.0000000000000000E+00    0.0000000000000000E+00    0.4478607057935207E+00   -0.3682009801190734E+00    0.0000000000000000E+00    0.0000000000000000E+00    0.0000000000000000E+00    0.0000000000000000E+00    0.0000000000000000E+00
 -0.5805  -0.3555    0.1014212479064026E-01    0.0000000000000000E+00    0.0000000000000000E+00    0.4610873922876479E+00   -0.1509250408963100E+00    0.0000000000000000E+00    0.0000000000000000E+00    0.0000000000000000E+00    0.0000000000000000E+00    0.0000000000000000E+00
 -0.5828  -0.3668    0.4551182175623217E-02    0.0000000000000000E+00    0.0000000000000000E+00    0.4726709043382623E+00   -0.3360161537582759E-01    0.0000000000000000E+00    0.0000000000000000E+00    0.0000000000000000E+00    0.0000000000000000E+00    0.0000000000000000E+00
 -0.5846  -0.3761   -0.1498778237143948E-03    0.0000000000000000E+00    0.0000000000000000E+00    0.4823772253488585E+00    0.1152289383492527E-01    0.0000000000000000E+00    0.0000000000000000E+00    0.0000000000000000E+00    0.0000000000000000E+00    0.0000000000000000E+00
 -0.5861  -0.3834   -0.3835478145389216E-02    0.0000000000000000E+00    0.0000000000000000E+00    0.4900411864464302E+00    0.1436890780609006E-01    0.0000000000000000E+00    0.0000000000000000E+00    0.0000000000000000E+00    0.0000000000000000E+00    0.0000000000000000E+00
 -0.5871  -0.3887   -0.6450639253962033E-02    0.0000000000000000E+00    0.0000000000000000E+00    0.4955623716624074E+00    0.4304111679077452E-02    0.0000000000000000E+00    0.0000000000000000E+00    0.0000000000000000E+00    0.0000000000000000E+00    0.0000000000000000E+00
 -0.5877  -0.3918   -0.8010365171020014E-02    0.0000000000000000E+00    0.0000000000000000E+00    0.4988891959002419E+00   -0.1097845710428824E-03    0.0000000000000000E+00    0.0000000000000000E+00    0.0000000000000000E+00    0.0000000000000000E+00    0.0000000000000000E+00
 -0.5879  -0.3928   -0.8532275341398065E-02    0.0000000000000000E+00    0.0000000000000000E+00    0.5000000000000000E+00    0.0000000000000000E+00    0.0000000000000000E+00    0.0000000000000000E+00    0.0000000000000000E+00    0.0000000000000000E+00    0.0000000000000000E+00
 -0.3918   0.5877    0.2523058432682904E-01    0.0000000000000000E+00    0.0000000000000000E+00   -0.5000000000000000E+00   -0.8513609504021995E-04    0.0000000000000000E+00    0.0000000000000000E+00    0.0000000000000000E+00    0.0000000000000000E+00    0.0000000000000000E+00
 -0.3920   0.5867    0.2575130296583950E-01    0.2124905202408875E-06   -0.2125884749278725E-06   -0.4957554387662342E+00   -0.5453180979792526E-03   -0.1442790675109317E-09    0.5814525011645089E-10   -0.6310644552493666E-12   -0.6277244349317534E-12    0.4911972196174064E-11
 -0.3926   0.5835    0.2728954797479788E-01    0.4139325506924285E-05   -0.1006003178975698E-05   -0.4830419057405712E+00   -0.3636953678527738E-02   -0.2248540662732338E-08    0.5393174535434087E-10   -0.1144033002012379E-11   -0.9181414309389346E-12    0.1850027292818468E-10
 -0.3937   0.5783    0.2978424098793026E-01    0.1418019617094186E-04   -0.1015347017293904E-05   -0.4619316109559792E+00   -0.1159355905326806E-01   -0.7931883870573262E-08    0.5028976237178573E-10   -0.1148646282256305E-11   -0.8724774375190592E-12    0.4131897948789209E-10
 -0.3951   0.5710    0.3312081842412131E-01    0.2418252542366606E-04   -0.4357827339599815E-06   -0.4325836256085760E+00   -0.1998730856018049E-01   -0.1341795664584480E-07    0.4823609036069126E-10   -0.1055383211379102E-11   -0.8855934648804853E-12    0.7427473913690363E-10
 -0.3970   0.5617    0.3710083361676634E-01    0.2499803977827908E-04    0.3094735589440123E-06   -0.3952990115106487E+00   -0.2062108664607503E-01   -0.1391126773935293E-07    0.4714513003080401E-10   -0.1081981726436254E-11   -0.8935367636769831E-12    0.1193702567348076E-09
 -0.3992   0.5504    0.4144792324984366E-01    0.1162095527791796E-04    0.8934903834321477E-06   -0.3505908874523802E+00   -0.8900243035878027E-02   -0.6584455795438205E-08    0.4659297752306057E-10   -0.1403727828419576E-11   -0.8819954315508749E-12    0.1802130979167149E-09
 -0.4019   0.5372    0.4582891807966448E-01   -0.1421249177329612E-04    0.1121284657986929E-05   -0.2992643165766397E+00    0.1374291038208933E-01    0.7506044813496789E-08    0.4554510718221549E-10   -0.2101867725007311E-11   -0.8355174191398973E-12    0.2638911589247783E-09
 -0.4049   0.5220    0.4987999616948401E-01   -0.4368390243364718E-04    0.8989726629463574E-06   -0.2425013974087555E+00    0.3924926782208894E-01    0.2367799413484660E-07    0.4284526054255944E-10   -0.3111969883173860E-11   -0.8012718093197702E-12    0.3810075727139761E-09
 -0.4082   0.5051    0.5323732505774055E-01   -0.6158072441244262E-04    0.1915450056460091E-06   -0.1819403783386966E+00    0.5367401006921654E-01    0.3368184219091588E-07    0.3710287654369593E-10   -0.4239362333402497E-11   -0.8621324682801801E-12    0.5441473036049693E-09
 -0.4120   0.4864    0.5557295569578352E-01   -0.4766406326255821E-04   -0.9818611531482105E-06   -0.1197207790188601E+00    0.3837107809147403E-01    0.2667983532469100E-07    0.2690219249625037E-10   -0.5241945766343292E-11   -0.8431189774116277E-12    0.7649493885542036E-09
 -0.4160   0.4660    0.5663319637469598E-01    0.2056392349960380E-04   -0.2530127762668481E-05   -0.5844457840258253E-01   -0.2738921171471557E-01   -0.9460962911349293E-08    0.1058772427370291E-10   -0.5920347545540494E-11   -0.8673166351780282E-12    0.1045503461583053E-08
 -0.4204   0.4441    0.5627076368811983E-01    0.1637533557980817E-03   -0.4297887791731548E-05   -0.9902888991074772E-03   -0.1627055302611895E+00   -0.8580097961155339E-07   -0.1365672505637683E-10   -0.6165824795179020E-11   -0.8618210312061336E-12    0.1370104946163408E-08
 -0.4250   0.4207    0.5446081971549006E-01    0.3969416568249986E-03   -0.6117991008144571E-05    0.4986420232462168E-01   -0.3815387034039590E+00   -0.2104300511763462E-06   -0.4754894221414840E-10   -0.5942475678200054E-11   -0.8120344674455993E-12    0.1698144166950577E-08
 -0.4300   0.3959    0.5129668063711326E-01    0.7286189048857874E-03   -0.7884983407236180E-05    0.9197604898166087E-01   -0.6918435396445979E+00   -0.3878690281646356E-06   -0.9202001487185196E-10   -0.5219234766595804E-11   -0.8262557305016571E-12    0.1967884105669171E-08
 -0.4351   0.3698    0.4696986134367866E-01    0.1163135405741819E-02   -0.9583623179386730E-05    0.1243647854654139E+00   -0.1097691049972915E+01   -0.6204615297650840E-06   -0.1464498106118484E-09   -0.3909157719750311E-11   -0.7741099428137943E-12    0.2113215651078360E-08
 -0.4406   0.3425    0.4174319815967917E-01    0.1703945010130499E-02   -0.1124769462447394E-04    0.1474728928334160E+00   -0.1602217481200431E+01   -0.9100606394659077E-06   -0.2082818535698028E-09   -0.1828627527178384E-11   -0.7331010798417026E-12    0.2088507658482008E-08
 -0.4462   0.3142    0.3592510181367626E-01    0.2354377952664959E-02   -0.1288643713578672E-04    0.1629692787462249E+00   -0.2208297272517848E+01   -0.1258504111180571E-05   -0.2734019642625096E-09    0.1275736460915056E-11   -0.6459902057720512E-12    0.1887800915589821E-08
 -0.4520   0.2850    0.2985060256103071E-01    0.3114967234615889E-02   -0.1443714663902328E-04    0.1731550944227355E+00   -0.2916098354875898E+01   -0.1666131936588819E-05   -0.3369724742297020E-09    0.5674700293001322E-11   -0.5915407053080912E-12    0.1546192862980633E-08
 -0.4580   0.2550    0.2387136921843902E-01    0.3979040581743201E-02   -0.1576716145553861E-04    0.1802750605787135E+00   -0.3719038301917614E+01   -0.2129445176554678E-05   -0.3941687011510542E-09    0.1157068538204520E-10   -0.5032640970625835E-12    0.1123619239318252E-08
 -0.4641   0.2243    0.1835041908407019E-01    0.4929152061280712E-02   -0.1670990013615369E-04    0.1860570795511024E+00   -0.4600549788668411E+01   -0.2639153180594340E-05   -0.4403733697144752E-09    0.1899632881552371E-10   -0.3955030747349042E-12    0.6799118508872895E-09
 -0.4703   0.1930    0.1365280870763986E-01    0.5936029145549143E-02   -0.1711011541406884E-04    0.1915983835141150E+00   -0.5533171995157621E+01   -0.3179612117173089E-05   -0.4712071496881798E-09    0.2768118373408512E-10   -0.2736422199944855E-12    0.2596776322617844E-09
 -0.4766   0.1613    0.1012570253016108E-01    0.6960243838328870E-02   -0.1685450847949117E-04    0.1974947955615676E+00   -0.6480158717107180E+01   -0.3729700819662763E-05   -0.4825926047669071E-09    0.3712689877755082E-10   -0.1596500709410975E-12   -0.1114034095008043E-09
 -0.4830   0.1294    0.8068400841797087E-02    0.7955603092182588E-02   -0.1588104126123374E-04    0.2040383326173840E+00   -0.7398654145878652E+01   -0.4264636876432562E-05   -0.4711218741515477E-09    0.4663888719669274E-10   -0.8137934770502397E-13   -0.4234402915109792E-09
 -0.4893   0.0973    0.7698190208540885E-02    0.8872847855703442E-02   -0.1416716792910971E-04    0.2113712006731329E+00   -0.8243124960047242E+01   -0.4757964176337853E-05   -0.4344253880239624E-09    0.5551023529726251E-10    0.1207367539279858E-14   -0.6761706871499795E-09
 -0.4957   0.0653    0.9118610535044773E-02    0.9662644214271711E-02   -0.1171330474677577E-04    0.2195712009593837E+00   -0.8968129690823552E+01   -0.5183149390061134E-05   -0.3717632209021549E-09    0.6308359390416740E-10    0.7832623438730479E-13   -0.8725828410521830E-09
 -0.5021   0.0333    0.1229407261594532E-01    0.1027771887725947E-01   -0.8530788079878717E-05    0.2286879751247507E+00   -0.9530280078504378E+01   -0.5514746887245848E-05   -0.2842472715536282E-09    0.6885070291673401E-10    0.1082398060070489E-12   -0.1017842437937844E-08
 -0.5084   0.0017    0.1703293371760955E-01    0.1067477711433160E-01   -0.4648789428816136E-05    0.2387542377963136E+00   -0.9890017373665334E+01   -0.5729406669313252E-05   -0.1748710846266599E-09    0.7246953037665094E-10    0.8572309528886990E-13   -0.1117032995615053E-08
 -0.5146  -0.0296    0.2298155864475710E-01    0.1081719373006411E-01   -0.1359359402854378E-06    0.2497868331000890E+00   -0.1001407404706046E+02   -0.5807352898223021E-05   -0.4828444504574765E-10    0.7375855481939197E-10    0.6625326372591833E-13   -0.1174850048843434E-08
 -0.5207  -0.0603    0.2963459548697642E-01    0.1067918362072033E-01    0.4863989798025496E-05    0.2617843457294933E+00   -0.9879302293571929E+01   -0.5734594146597708E-05    0.8949258174795194E-10    0.7265799073508106E-10    0.1113345526881915E-13   -0.1195912558218937E-08
 -0.5267  -0.0903    0.3636833646661942E-01    0.1025132889856310E-01    0.1010430152231551E-04    0.2747240061084767E+00   -0.9477684397266680E+01   -0.5505953388537999E-05    0.2315093637628163E-09    0.6927103335385709E-10   -0.3913536161803677E-13   -0.1185190260169500E-08
 -0.5325  -0.1196    0.4250211324165416E-01    0.9546189320174083E-02    0.1522668146075326E-04    0.2885591629905461E+00   -0.8821414430466275E+01   -0.5128050931075845E-05    0.3705669278375456E-09    0.6386069451025378E-10   -0.1189465193007777E-12   -0.1147038894422359E-08
 -0.5381  -0.1479    0.4738465040339844E-01    0.8601768979525613E-02    0.1979664502808703E-04    0.3032180170099991E+00   -0.7945945236094621E+01   -0.4621255807059286E-05    0.4999657979287697E-09    0.5681971559923227E-10   -0.2324113124174687E-12   -0.1086171992625840E-08
 -0.5435  -0.1751    0.5049069026575345E-01    0.7480462566599428E-02    0.2337560446843661E-04    0.3186037872482383E+00   -0.6908946353662954E+01   -0.4019063111373129E-05    0.6143604791564172E-09    0.4873002001914983E-10   -0.2641081797705169E-12   -0.1007639253286507E-08
 -0.5487  -0.2012    0.5150308493396684E-01    0.6262241413962919E-02    0.2562238989938762E-04    0.3345957840043062E+00   -0.5783975214291833E+01   -0.3364520755981893E-05    0.7103870200420026E-09    0.4022443489404282E-10   -0.3439054596654501E-12   -0.9160794033069575E-09
 -0.5537  -0.2260    0.5035526258484354E-01    0.5033031099640059E-02    0.2637450829020540E-04    0.3510501415816825E+00   -0.4649877076022861E+01   -0.2703864958949541E-05    0.7869807513993798E-09    0.3195094189223369E-10   -0.3991806885039750E-12   -0.8167699676320250E-09
 -0.5583  -0.2494    0.4722071338528831E-01    0.3871435863806463E-02    0.2568771543155278E-04    0.3677986709368141E+00   -0.3578650928481560E+01   -0.2079473686530024E-05    0.8451852134827575E-09    0.2445021962671490E-10   -0.4116568197432002E-12   -0.7139838945763310E-09
 -0.5627  -0.2714    0.4245593429618352E-01    0.2837841475605602E-02    0.2380036893932462E-04    0.3846449573634364E+00   -0.2625596333685891E+01   -0.1523842728491864E-05    0.8874621870713639E-09    0.1804648097625261E-10   -0.4152511667854242E-12   -0.6116003380823853E-09
 -0.5667  -0.2917    0.3651907793091287E-01    0.1968870174050506E-02    0.2105860530063874E-04    0.4013586783557054E+00   -0.1824231077901462E+01   -0.1056751016011443E-05    0.9169640324824258E-09    0.1288026629797656E-10   -0.4529293606836404E-12   -0.5132714930161653E-09
 -0.5704  -0.3104    0.2989129930603779E-01    0.1277842212787979E-02    0.1781185801611984E-04    0.4176715866188393E+00   -0.1186788508737578E+01   -0.6853153223776751E-06    0.9367572412211089E-09    0.8893163983003660E-11   -0.4619915561221433E-12   -0.4202810339332119E-09
 -0.5738  -0.3274    0.2301964162155163E-01    0.7596227141191152E-03    0.1434651727133379E-04    0.4332802080743542E+00   -0.7085434374818201E+00   -0.4068379277504945E-06    0.9495018174487946E-09    0.5933153274240155E-11   -0.4765077221691172E-12   -0.3353855543980488E-09
 -0.5768  -0.3425    0.1628779780985990E-01    0.3971240777961546E-03    0.1084237986597719E-04    0.4478593267484486E+00   -0.3738146185299280E+00   -0.2120411964641655E-06    0.9572879641761567E-09    0.3807620885254437E-11   -0.4721778523730791E-12   -0.2589811611691806E-09
 -0.5795  -0.3557    0.1000919041222384E-01    0.1668243751532283E-03    0.7413373828399626E-05    0.4610862181299704E+00   -0.1608358282456515E+00   -0.8839256300887315E-07    0.9617253382554480E-09    0.2349048039418378E-11   -0.4839878497975292E-12   -0.1914691738491570E-09
 -0.5817  -0.3670    0.4431802550716014E-02    0.4184883072747099E-04    0.4164540901484529E-05    0.4726699921036903E+00   -0.4470735493842284E-01   -0.2134498477394097E-07    0.9640562011886677E-09    0.1428971524441991E-11   -0.4896499872231175E-12   -0.1336318269581915E-09
 -0.5836  -0.3763   -0.2574516349369458E-03   -0.7384599266758620E-05    0.1355429586421558E-05    0.4823765958436329E+00    0.2180722997782270E-02    0.4785650772592237E-08    0.9654094667785329E-09    0.9341936946238860E-12   -0.5058687843617626E-12   -0.8598239394780327E-10
 -0.5850  -0.3836   -0.3935321555692432E-02   -0.1265912994280558E-04   -0.5884551855174367E-06    0.4900408175622560E+00    0.9144487091773417E-02    0.7308849643306328E-08    0.9666081600499116E-09    0.7365358323241367E-12   -0.4912834462161841E-12   -0.4857496653173921E-10
 -0.5861  -0.3889   -0.6550148803875927E-02   -0.4246435996182753E-05   -0.1096712895546963E-05    0.4955622051892608E+00    0.3721428833185118E-02    0.2278040357293766E-08    0.9685431970329894E-09    0.6627563081673671E-12   -0.5356604916573193E-12   -0.2153220895854957E-10
 -0.5867  -0.3920   -0.8112187663107114E-02   -0.1351183278780541E-06   -0.1353488858916969E-06    0.4988891541508304E+00    0.5772847258298426E-03    0.1162598960709456E-09    0.9709104482847827E-09    0.3615468384746134E-12   -0.3581052555184927E-12   -0.5189327483348660E-11
 -0.5869  -0.3931   -0.8634214445546783E-02    0.0000000000000000E+00    0.0000000000000000E+00    0.5000000000000000E+00   -0.1092449833662144E-03    0.0000000000000000E+00    0.0000000000000000E+00    0.0000000000000000E+00    0.0000000000000000E+00    0.0000000000000000E+00
 -0.3887   0.5871    0.2554394710445801E-01    0.0000000000000000E+00    0.0000000000000000E+00   -0.5000000000000000E+00   -0.4228737784419171E-02    0.0000000000000000E+00    0.0000000000000000E+00    0.0000000000000000E+00    0.0000000000000000E+00    0.0000000000000000E+00
 -0.3889   0.5861    0.2606258975586852E-01    0.1005494715358348E-05   -0.4138766375728368E-05   -0.4957539643628084E+00   -0.3636198441538987E-02   -0.2248247808574106E-08    0.5408444633987763E-10   -0.8943940965448760E-12   -0.1212550567765425E-11    0.4497050843689510E-11
 -0.3895   0.5829    0.2759685213762634E-01    0.1173918559022803E-04   -0.1174159320671064E-04   -0.4830360049400367E+00   -0.2682117344146177E-02   -0.2954094832101016E-07    0.5248744060909472E-10   -0.2665147182806527E-11   -0.2904378994250667E-11    0.1800250703717921E-10
 -0.3905   0.5777    0.3008129584012455E-01    0.3923003833834089E-04   -0.1290567592649387E-04   -0.4619183215382714E+00   -0.3950108899168638E-02   -0.9970349335910677E-07    0.5003840484324451E-10   -0.3650122738785289E-11   -0.3486166650495948E-11    0.4098417959175205E-10
 -0.3920   0.5704    0.3339551833839173E-01    0.6812553615059632E-04   -0.5779768164787541E-05   -0.4325600262628758E+00   -0.7022251692325730E-02   -0.1716068613560159E-06    0.4805856233802697E-10   -0.3914811183558520E-11   -0.3558188899771553E-11    0.7389348855024735E-10
 -0.3938   0.5611    0.3734463558108221E-01    0.6941098951004367E-04    0.4450647367779783E-05   -0.3952622919834766E+00   -0.6834475051580568E-02   -0.1763615264439315E-06    0.4689482764781705E-10   -0.4411793846914591E-11   -0.3388032259257767E-11    0.1190082789259694E-09
 -0.3961   0.5498    0.4165728794044237E-01    0.2456393298763822E-04    0.1267918742637632E-04   -0.3505383454890112E+00    0.7086059846775175E-03   -0.7244347904271289E-07    0.4611879975136013E-10   -0.5896713672903786E-11   -0.3202208029989828E-11    0.1798891695325988E-09
 -0.3987   0.5365    0.4600395182771728E-01   -0.6075921738540562E-04    0.1572235276550116E-04   -0.2991933642736023E+00    0.1483650629982218E-01    0.1267726107504195E-06    0.4490811021662378E-10   -0.8739871998862669E-11   -0.3051838295964338E-11    0.2635196089117997E-09
 -0.4017   0.5214    0.5002321669120935E-01   -0.1538318407429162E-03    0.1196542978230887E-04   -0.2424097856670200E+00    0.2869018394514261E-01    0.3490915301626100E-06    0.4207611863094041E-10   -0.1274077544854979E-10   -0.3016364935604088E-11    0.3805804768552967E-09