 title="result"
 variables="x","y","P","u","v","t","omega","psi","RES1","RES2","RES3","RES4"
zone,j= 49,i= 49,f=point
 -0.1830   0.6830    0.2419434147603134E-01    0.0000000000000000E+00    0.0000000000000000E+00   -0.5000000000000000E+00    0.0000000000000000E+00    0.0000000000000000E+00    0.0000000000000000E+00    0.0000000000000000E+00    0.0000000000000000E+00    0.0000000000000000E+00
 -0.1835   0.6821    0.2465564291768947E-01    0.0000000000000000E+00    0.0000000000000000E+00   -0.4948808535134254E+00    0.5483741305264098E-03    0.0000000000000000E+00    0.0000000000000000E+00    0.0000000000000000E+00    0.0000000000000000E+00    0.0000000000000000E+00
 -0.1852   0.6793    0.2597889715910516E-01    0.0000000000000000E+00    0.0000000000000000E+00   -0.4795486016718662E+00   -0.4894091057074992E-02    0.0000000000000000E+00    0.0000000000000000E+00    0.0000000000000000E+00    0.0000000000000000E+00    0.0000000000000000E+00
 -0.1878   0.6747    0.2808235287311879E-01    0.0000000000000000E+00    0.0000000000000000E+00   -0.4540990148888929E+00   -0.4892021510301209E-01    0.0000000000000000E+00    0.0000000000000000E+00    0.0000000000000000E+00    0.0000000000000000E+00    0.0000000000000000E+00
 -0.1915   0.6683    0.3094590479309394E-01    0.0000000000000000E+00    0.0000000000000000E+00   -0.4187647399298720E+00   -0.1561724958616014E+00    0.0000000000000000E+00    0.0000000000000000E+00    0.0000000000000000E+00    0.0000000000000000E+00    0.0000000000000000E+00
 -0.1963   0.6600    0.3452882614021741E-01    0.0000000000000000E+00    0.0000000000000000E+00   -0.3740416895974614E+00   -0.3221463725927731E+00    0.0000000000000000E+00    0.0000000000000000E+00    0.0000000000000000E+00    0.0000000000000000E+00    0.0000000000000000E+00
 -0.2020   0.6501    0.3869366524485009E-01    0.0000000000000000E+00    0.0000000000000000E+00   -0.3208744421738081E+00   -0.5193866605398749E+00    0.0000000000000000E+00    0.0000000000000000E+00    0.0000000000000000E+00    0.0000000000000000E+00    0.0000000000000000E+00
 -0.2088   0.6384    0.4317968738922918E-01    0.0000000000000000E+00    0.0000000000000000E+00   -0.2608513684420258E+00   -0.7084693955076102E+00    0.0000000000000000E+00    0.0000000000000000E+00    0.0000000000000000E+00    0.0000000000000000E+00    0.0000000000000000E+00
 -0.2165   0.6250    0.4760612142585944E-01    0.0000000000000000E+00    0.0000000000000000E+00   -0.1963077536596874E+00   -0.8516170622323066E+00    0.0000000000000000E+00    0.0000000000000000E+00    0.0000000000000000E+00    0.0000000000000000E+00    0.0000000000000000E+00
 -0.2251   0.6100    0.5151629715419159E-01    0.0000000000000000E+00    0.0000000000000000E+00   -0.1302287232096149E+00   -0.9262052603482113E+00    0.0000000000000000E+00    0.0000000000000000E+00    0.0000000000000000E+00    0.0000000000000000E+00    0.0000000000000000E+00
 -0.2347   0.5935    0.5445149466029477E-01    0.0000000000000000E+00    0.0000000000000000E+00   -0.6591681542025933E-01   -0.9351434410102869E+00    0.0000000000000000E+00    0.0000000000000000E+00    0.0000000000000000E+00    0.0000000000000000E+00    0.0000000000000000E+00
 -0.2451   0.5756    0.5604528110536804E-01    0.0000000000000000E+00    0.0000000000000000E+00   -0.6509815566445815E-02   -0.9090040176791213E+00    0.0000000000000000E+00    0.0000000000000000E+00    0.0000000000000000E+00    0.0000000000000000E+00    0.0000000000000000E+00
 -0.2562   0.5562    0.5610280947264584E-01    0.0000000000000000E+00    0.0000000000000000E+00    0.4548882397265818E-01   -0.8964584578471808E+00    0.0000000000000000E+00    0.0000000000000000E+00    0.0000000000000000E+00    0.0000000000000000E+00    0.0000000000000000E+00
 -0.2682   0.5355    0.5462977489089117E-01    0.0000000000000000E+00    0.0000000000000000E+00    0.8853230472363342E-01   -0.9466120489400904E+00    0.0000000000000000E+00    0.0000000000000000E+00    0.0000000000000000E+00    0.0000000000000000E+00    0.0000000000000000E+00
 -0.2808   0.5136    0.5179515604836284E-01    0.0000000000000000E+00    0.0000000000000000E+00    0.1221590225828531E+00   -0.1093721789578349E+01    0.0000000000000000E+00    0.0000000000000000E+00    0.0000000000000000E+00    0.0000000000000000E+00    0.0000000000000000E+00
 -0.2941   0.4906    0.4785801985485545E-01    0.0000000000000000E+00    0.0000000000000000E+00    0.1469399859731981E+00   -0.1353262744806452E+01    0.0000000000000000E+00    0.0000000000000000E+00    0.0000000000000000E+00    0.0000000000000000E+00    0.0000000000000000E+00
 -0.3080   0.4665    0.4310392577479755E-01    0.0000000000000000E+00    0.0000000000000000E+00    0.1642650958911261E+00   -0.1728082011760206E+01    0.0000000000000000E+00    0.0000000000000000E+00    0.0000000000000000E+00    0.0000000000000000E+00    0.0000000000000000E+00
 -0.3224   0.4415    0.3781664803785627E-01    0.0000000000000000E+00    0.0000000000000000E+00    0.1759971398654390E+00   -0.2216096711721019E+01    0.0000000000000000E+00    0.0000000000000000E+00    0.0000000000000000E+00    0.0000000000000000E+00    0.0000000000000000E+00
 -0.3373   0.4157    0.3227671008276440E-01    0.0000000000000000E+00    0.0000000000000000E+00    0.1840687754891899E+00   -0.2813258639209644E+01    0.0000000000000000E+00    0.0000000000000000E+00    0.0000000000000000E+00    0.0000000000000000E+00    0.0000000000000000E+00
 -0.3527   0.3892    0.2676960390392825E-01    0.0000000000000000E+00    0.0000000000000000E+00    0.1901421895513990E+00   -0.3512179410353099E+01    0.0000000000000000E+00    0.0000000000000000E+00    0.0000000000000000E+00    0.0000000000000000E+00    0.0000000000000000E+00
 -0.3683   0.3621    0.2159152158011468E-01    0.0000000000000000E+00    0.0000000000000000E+00    0.1954310810718733E+00   -0.4299689860696849E+01    0.0000000000000000E+00    0.0000000000000000E+00    0.0000000000000000E+00    0.0000000000000000E+00    0.0000000000000000E+00
 -0.3842   0.3345    0.1704831413039181E-01    0.0000000000000000E+00    0.0000000000000000E+00    0.2007002070689765E+00   -0.5155622283949864E+01    0.0000000000000000E+00    0.0000000000000000E+00    0.0000000000000000E+00    0.0000000000000000E+00    0.0000000000000000E+00
 -0.4004   0.3065    0.1344514335599198E-01    0.0000000000000000E+00    0.0000000000000000E+00    0.2063758408479449E+00   -0.6053237272082954E+01    0.0000000000000000E+00    0.0000000000000000E+00    0.0000000000000000E+00    0.0000000000000000E+00    0.0000000000000000E+00
 -0.4167   0.2783    0.1106833933222941E-01    0.0000000000000000E+00    0.0000000000000000E+00    0.2126789905696425E+00   -0.6960794937922358E+01    0.0000000000000000E+00    0.0000000000000000E+00    0.0000000000000000E+00    0.0000000000000000E+00    0.0000000000000000E+00
 -0.4330   0.2500    0.1016265865657945E-01    0.0000000000000000E+00    0.0000000000000000E+00    0.2197264175620132E+00   -0.7843337398449785E+01    0.0000000000000000E+00    0.0000000000000000E+00    0.0000000000000000E+00    0.0000000000000000E+00    0.0000000000000000E+00
 -0.4494   0.2217    0.1090804780960812E-01    0.0000000000000000E+00    0.0000000000000000E+00    0.2275879176157288E+00   -0.8663926792633118E+01    0.0000000000000000E+00    0.0000000000000000E+00    0.0000000000000000E+00    0.0000000000000000E+00    0.0000000000000000E+00
 -0.4656   0.1935    0.1339712784336989E-01    0.0000000000000000E+00    0.0000000000000000E+00    0.2363116578800888E+00   -0.9384014782755093E+01    0.0000000000000000E+00    0.0000000000000000E+00    0.0000000000000000E+00    0.0000000000000000E+00    0.0000000000000000E+00
 -0.4818   0.1655    0.1761320147660540E-01    0.0000000000000000E+00    0.0000000000000000E+00    0.2459323298653296E+00   -0.9963361338568630E+01    0.0000000000000000E+00    0.0000000000000000E+00    0.0000000000000000E+00    0.0000000000000000E+00    0.0000000000000000E+00
 -0.4977   0.1379    0.2340821259954457E-01    0.0000000000000000E+00    0.0000000000000000E+00    0.2564716702201392E+00   -0.1036042249301583E+02    0.0000000000000000E+00    0.0000000000000000E+00    0.0000000000000000E+00    0.0000000000000000E+00    0.0000000000000000E+00
 -0.5134   0.1108    0.3048374268539858E-01    0.0000000000000000E+00    0.0000000000000000E+00    0.2679359397201364E+00   -0.1053442071971537E+02    0.0000000000000000E+00    0.0000000000000000E+00    0.0000000000000000E+00    0.0000000000000000E+00    0.0000000000000000E+00
 -0.5287   0.0843    0.3838279349986624E-01    0.0000000000000000E+00    0.0000000000000000E+00    0.2803123635316283E+00   -0.1044997782365446E+02    0.0000000000000000E+00    0.0000000000000000E+00    0.0000000000000000E+00    0.0000000000000000E+00    0.0000000000000000E+00
 -0.5436   0.0585    0.4650474494969593E-01    0.0000000000000000E+00    0.0000000000000000E+00    0.2935656215975138E+00   -0.1008438565488073E+02    0.0000000000000000E+00    0.0000000000000000E+00    0.0000000000000000E+00    0.0000000000000000E+00    0.0000000000000000E+00
 -0.5580   0.0335    0.5415504503435584E-01    0.0000000000000000E+00    0.0000000000000000E+00    0.3076352253090012E+00   -0.9436118206853001E+01    0.0000000000000000E+00    0.0000000000000000E+00    0.0000000000000000E+00    0.0000000000000000E+00    0.0000000000000000E+00
 -0.5719   0.0094    0.6063268466889721E-01    0.0000000000000000E+00    0.0000000000000000E+00    0.3224343906324267E+00   -0.8531775717182777E+01    0.0000000000000000E+00    0.0000000000000000E+00    0.0000000000000000E+00    0.0000000000000000E+00    0.0000000000000000E+00
 -0.5852  -0.0136    0.6534193152219410E-01    0.0000000000000000E+00    0.0000000000000000E+00    0.3378505080784983E+00   -0.7427917787869962E+01    0.0000000000000000E+00    0.0000000000000000E+00    0.0000000000000000E+00    0.0000000000000000E+00    0.0000000000000000E+00
 -0.5978  -0.0355    0.6789817269286762E-01    0.0000000000000000E+00    0.0000000000000000E+00    0.3537464958641268E+00   -0.6205405125212306E+01    0.0000000000000000E+00    0.0000000000000000E+00    0.0000000000000000E+00    0.0000000000000000E+00    0.0000000000000000E+00
 -0.6098  -0.0562    0.6819210392231984E-01    0.0000000000000000E+00    0.0000000000000000E+00    0.3699615057640642E+00   -0.4956641901311992E+01    0.0000000000000000E+00    0.0000000000000000E+00    0.0000000000000000E+00    0.0000000000000000E+00    0.0000000000000000E+00
 -0.6210  -0.0756    0.6638941122981730E-01    0.0000000000000000E+00    0.0000000000000000E+00    0.3863092565347587E+00   -0.3769503100659036E+01    0.0000000000000000E+00    0.0000000000000000E+00    0.0000000000000000E+00    0.0000000000000000E+00    0.0000000000000000E+00
 -0.6314  -0.0935    0.6286929694305486E-01    0.0000000000000000E+00    0.0000000000000000E+00    0.4025733732238507E+00   -0.2713273842432204E+01    0.0000000000000000E+00    0.0000000000000000E+00    0.0000000000000000E+00    0.0000000000000000E+00    0.0000000000000000E+00
 -0.6409  -0.1100    0.5812896638746960E-01    0.0000000000000000E+00    0.0000000000000000E+00    0.4185016603235505E+00   -0.1830972496348739E+01    0.0000000000000000E+00    0.0000000000000000E+00    0.0000000000000000E+00    0.0000000000000000E+00    0.0000000000000000E+00
 -0.6495  -0.1250    0.5268944562486807E-01    0.0000000000000000E+00    0.0000000000000000E+00    0.4338041848177024E+00   -0.1139143910850056E+01    0.0000000000000000E+00    0.0000000000000000E+00    0.0000000000000000E+00    0.0000000000000000E+00    0.0000000000000000E+00
 -0.6572  -0.1384    0.4702829698130261E-01    0.0000000000000000E+00    0.0000000000000000E+00    0.4481611612647209E+00   -0.6332508610418478E+00    0.0000000000000000E+00    0.0000000000000000E+00    0.0000000000000000E+00    0.0000000000000000E+00    0.0000000000000000E+00
 -0.6640  -0.1501    0.4154736645877467E-01    0.0000000000000000E+00    0.0000000000000000E+00    0.4612438404070010E+00   -0.2948016996163203E+00    0.0000000000000000E+00    0.0000000000000000E+00    0.0000000000000000E+00    0.0000000000000000E+00    0.0000000000000000E+00
 -0.6697  -0.1600    0.3656703031811446E-01    0.0000000000000000E+00    0.0000000000000000E+00    0.4727451586031343E+00   -0.9700812124083762E-01    0.0000000000000000E+00    0.0000000000000000E+00    0.0000000000000000E+00    0.0000000000000000E+00    0.0000000000000000E+00
 -0.6745  -0.1683    0.3233088946810813E-01    0.0000000000000000E+00    0.0000000000000000E+00    0.4824103095226059E+00   -0.6969181934655776E-02    0.0000000000000000E+00    0.0000000000000000E+00    0.0000000000000000E+00    0.0000000000000000E+00    0.0000000000000000E+00
 -0.6782  -0.1747    0.2900421070062129E-01    0.0000000000000000E+00    0.0000000000000000E+00    0.4900554691597742E+00    0.1360404938509007E-01    0.0000000000000000E+00    0.0000000000000000E+00    0.0000000000000000E+00    0.0000000000000000E+00    0.0000000000000000E+00
 -0.6809  -0.1793    0.2666251383384917E-01    0.0000000000000000E+00    0.0000000000000000E+00    0.4955679608970200E+00    0.5748146651909816E-02    0.0000000000000000E+00    0.0000000000000000E+00    0.0000000000000000E+00    0.0000000000000000E+00    0.0000000000000000E+00
 -0.6825  -0.1821    0.2528189288363871E-01    0.0000000000000000E+00    0.0000000000000000E+00    0.4988905491801785E+00   -0.3798292282578165E-04    0.0000000000000000E+00    0.0000000000000000E+00    0.0000000000000000E+00    0.0000000000000000E+00    0.0000000000000000E+00
 -0.6830  -0.1830    0.2482256954244454E-01    0.0000000000000000E+00    0.0000000000000000E+00    0.5000000000000000E+00    0.0000000000000000E+00    0.0000000000000000E+00    0.0000000000000000E+00    0.0000000000000000E+00    0.0000000000000000E+00    0.0000000000000000E+00
 -0.1821   0.6825    0.2446185817573922E-01    0.0000000000000000E+00    0.0000000000000000E+00   -0.5000000000000000E+00    0.5490157955956008E-03    0.0000000000000000E+00    0.0000000000000000E+00    0.0000000000000000E+00    0.0000000000000000E+00    0.0000000000000000E+00
 -0.1826   0.6816    0.2492179066663775E-01   -0.4373386360183629E-07    0.4411012918079567E-07   -0.4948806905031696E+00   -0.7266729586051703E-03    0.4814328796207559E-10    0.3476179202886558E-09   -0.8125004575393335E-12   -0.7822410254265666E-12    0.1494594096922153E-10
 -0.1842   0.6788    0.2624778928362087E-01    0.7440708525715347E-05   -0.2561315504961999E-05   -0.4795479381333852E+00   -0.9581391964537892E-02   -0.3572955735420756E-08    0.3421225689900775E-09   -0.1437008498306191E-11   -0.1156331974616620E-11    0.5907596807575022E-10
 -0.1869   0.6742    0.2835672677116518E-01    0.5303748064218155E-04   -0.6476930450948750E-05   -0.4540974470256889E+00   -0.5047935846910982E-01   -0.2833533049593829E-07    0.3369513296852533E-09   -0.1292666060997982E-11   -0.1138172889270095E-11    0.1333941672398975E-09
 -0.1906   0.6677    0.3121517715520889E-01    0.1630043147133490E-03   -0.9163213008914552E-05   -0.4187617511426808E+00   -0.1486142335051510E+00   -0.8797368460079000E-07    0.3335246939739633E-09   -0.7392489398405644E-12   -0.1177877240188252E-11    0.2373300410363210E-09
 -0.1954   0.6595    0.3477818804903198E-01    0.3348161021825968E-03   -0.1004134983628561E-04   -0.3740367063937498E+00   -0.3035180156720222E+00   -0.1810049484833925E-06    0.3315154296912315E-09   -0.2546574062733953E-13   -0.1164478236059807E-11    0.3714628812878651E-09
 -0.2011   0.6495    0.3890987770250761E-01    0.5407820032001561E-03   -0.9017434879414621E-05   -0.3208669915487077E+00   -0.4910305837252849E+00   -0.2921505512733643E-06    0.3307993774737117E-09    0.5540984338026078E-12   -0.1175011477005938E-11    0.5362347996196171E-09
 -0.2079   0.6378    0.4335260917206142E-01    0.7399692305114235E-03   -0.6752667076787046E-05   -0.2608412795760425E+00   -0.6740437311650993E+00   -0.3993576199397696E-06    0.3303542127353065E-09    0.7059214324200980E-12   -0.1091845364120658E-11    0.7318488315366523E-09
 -0.2156   0.6245    0.4773056419111629E-01    0.8926209993174976E-03   -0.3890061355631365E-05   -0.1962953068565213E+00   -0.8160806260222114E+00   -0.4811657266881873E-06    0.3288420664243619E-09    0.2393363285335681E-12   -0.1090003087789171E-11    0.9590785943203173E-09
 -0.2242   0.6095    0.5159256394849423E-01    0.9746103473287237E-03   -0.1296591633143127E-05   -0.1302146507908730E+00   -0.8946665798487095E+00   -0.5246810399602661E-06    0.3243843505439103E-09   -0.9707928905200447E-12   -0.1062843389687540E-11    0.1216780357027325E-08
 -0.2337   0.5930    0.5448522222137861E-01    0.9885134964199851E-03    0.3645408360125567E-06   -0.6590213411395282E-01   -0.9117118587266938E+00   -0.5313519181857448E-06    0.3147393221698477E-09   -0.2971303758592114E-11   -0.1014912654785649E-11    0.1500634033702042E-08
 -0.2441   0.5750    0.5604575286143819E-01    0.9660073597424623E-03    0.6499715058016890E-06   -0.6495575470145290E-02   -0.8958076205591982E+00   -0.5183360624633470E-06    0.2971443262885648E-09   -0.5717343265487784E-11   -0.9977582995923662E-12    0.1799600288232561E-08
 -0.2553   0.5557    0.5608044826628033E-01    0.9579781497461824E-03   -0.3592138522151323E-06    0.4550174649851631E-01   -0.8933508617112481E+00   -0.5130785035586364E-06    0.2689261549993632E-09   -0.9002432480031963E-11   -0.9721529137252105E-12    0.2092255591001901E-08
 -0.2672   0.5350    0.5459370253584274E-01    0.1016064766176753E-02   -0.2259298413959460E-05    0.8854330383075742E-01   -0.9517036927162403E+00   -0.5433890003173670E-06    0.2280833646950420E-09   -0.1248354024319109E-10   -0.9699203246116284E-12    0.2345534544367922E-08
 -0.2799   0.5131    0.5175211438320605E-01    0.1176559683304594E-02   -0.4490087429337467E-05    0.1221677748821433E+00   -0.1104418077950325E+01   -0.6287625930623182E-06    0.1740663706922829E-09   -0.1575644822948696E-10   -0.9165133929567304E-12    0.2518481971580666E-08
 -0.2932   0.4900    0.4781259350921553E-01    0.1456081142844633E-02   -0.6698479002523557E-05    0.1469464344053201E+00   -0.1367068178646231E+01   -0.7780822572926864E-06    0.1079035142487195E-09   -0.1849716907420529E-10   -0.8855416400166405E-12    0.2572334442674240E-08
 -0.3071   0.4660    0.4305928458279101E-01    0.1857841053521595E-02   -0.8730876572738435E-05    0.1642694254905140E+00   -0.1742811500411988E+01   -0.9930448570617854E-06    0.3180865987273407E-10   -0.2042191415974060E-10   -0.7879669139398970E-12    0.2483060052710373E-08
 -0.3215   0.4410    0.3777492432720886E-01    0.2379647621509602E-02   -0.1059694660181200E-04    0.1759997250289280E+00   -0.2229636382761428E+01   -0.1272461949475206E-05   -0.5108971232181680E-10   -0.2126547549163860E-10   -0.7604056273535775E-12    0.2252515157036283E-08
 -0.3364   0.4152    0.3223899431247972E-01    0.3017045594021717E-02   -0.1228166948312356E-04    0.1840700848847650E+00   -0.2823266099707715E+01   -0.1613980941997985E-05   -0.1374912961260577E-09   -0.2073888977216498E-10   -0.6903921878631536E-12    0.1908108801171315E-08
 -0.3517   0.3887    0.2673584905908640E-01    0.3761919681005952E-02   -0.1374801224865785E-04    0.1901426738079885E+00   -0.3515927753390995E+01   -0.2013282422363158E-05   -0.2241239346889579E-09   -0.1852464709406476E-10   -0.6357414594759803E-12    0.1494596864673459E-08
 -0.3674   0.3615    0.2156061303941952E-01    0.4599973552329104E-02   -0.1490018118049922E-04    0.1954310900015180E+00   -0.4294079220157665E+01   -0.2462763186465915E-05   -0.3076589191741697E-09   -0.1441413828573435E-10   -0.5576650252692161E-12    0.1059242615982729E-08
 -0.3833   0.3339    0.1701827803968286E-01    0.5509489589937705E-02   -0.1565696570704036E-04    0.2006999637225720E+00   -0.5137316870564117E+01   -0.2950805969035003E-05   -0.3845995293072502E-09   -0.8340772517101414E-11   -0.4653916141350578E-12    0.6394279576313333E-09
 -0.3995   0.3060    0.1341341186134145E-01    0.6461829114856777E-02   -0.1593506003202934E-04    0.2063754625004003E+00   -0.6018873948925718E+01   -0.3462100481234057E-05   -0.4510093687404293E-09   -0.5279804371483010E-12   -0.4033579026341272E-12    0.2590991436159096E-09
 -0.4157   0.2778    0.1103197932954166E-01    0.7423128810740145E-02   -0.1569204439931568E-04    0.2126785271658742E+00   -0.6907229805757650E+01   -0.3978482012816287E-05   -0.5026804285324094E-09    0.8607781154523764E-11   -0.3358840983125333E-12   -0.7008656502383026E-10
 -0.4321   0.2495    0.1011850563576188E-01    0.8356209496790520E-02   -0.1488617182050376E-04    0.2197258845215740E+00   -0.7767879629843080E+01   -0.4480025709325778E-05   -0.5354033084936649E-09    0.1847733077653402E-10   -0.2797623244177316E-12   -0.3452570928805243E-09
 -0.4484   0.2211    0.1085273428619521E-01    0.9221893163911686E-02   -0.1348979994147085E-04    0.2275873156756019E+00   -0.8564572679008057E+01   -0.4945674337156200E-05   -0.5456223840794028E-09    0.2842151514137470E-10   -0.2286643097093588E-12   -0.5678228521058259E-09
 -0.4647   0.1929    0.1332701553504138E-01    0.9979406326167260E-02   -0.1144716098946392E-04    0.2363109826835255E+00   -0.9259678196306137E+01   -0.5353537798720793E-05   -0.5309339148884540E-09    0.3775857404519911E-10   -0.1742425648210144E-12   -0.7409199833524616E-09
 -0.4809   0.1650    0.1752430693555924E-01    0.1058631349465095E-01   -0.8696384973577354E-05    0.2459315760748601E+00   -0.9814163107406731E+01   -0.5680762167036394E-05   -0.4904740918965089E-09    0.4594286062697961E-10   -0.1532315940799833E-12   -0.8684229377275976E-09
 -0.4968   0.1374    0.2329619710904120E-01    0.1099896359165078E-01   -0.5162608655486590E-05    0.2564708333739190E+00   -0.1018801514217871E+02   -0.5903862209679000E-05   -0.4251795842485917E-09    0.5248845802441338E-10   -0.1682265438063268E-12   -0.9548895042732486E-09
 -0.5124   0.1103    0.3034410999027316E-01    0.1117470944525165E-01   -0.8171399854144452E-06    0.2679350172544158E+00   -0.1034234537536684E+02   -0.5999801664410705E-05   -0.3377999798284681E-09    0.5707839756396993E-10   -0.1743449135060970E-12   -0.1004141806162928E-08
 -0.5278   0.0838    0.3821133319679251E-01    0.1107681228152725E-01    0.4287812539322580E-05    0.2803113553285387E+00   -0.1024388862447823E+02   -0.5948744718070477E-05   -0.2327790928763340E-09    0.5947753400903366E-10   -0.2140232435721146E-12   -0.1020364084891590E-08
 -0.5427   0.0579    0.4629827452372011E-01    0.1068206828433480E-01    0.9946200169236163E-05    0.2935645299471114E+00   -0.9872013966796597E+01   -0.5738039590133485E-05   -0.1159928438021485E-09    0.5958977755682326E-10   -0.2443462099321891E-12   -0.1007662063165493E-08
 -0.5571   0.0330    0.5391226665927593E-01    0.9989675231650836E-02    0.1578460545085102E-04    0.3076340540750473E+00   -0.9226739808489640E+01   -0.5367146897514146E-05    0.5603996433567460E-11    0.5746114695170945E-10   -0.2509936702921323E-12   -0.9705096327278229E-09
 -0.5710   0.0089    0.6035496277274560E-01    0.9028380626685019E-02    0.2127069510006717E-04    0.3224331436086892E+00   -0.8335185865043648E+01   -0.4851364512606571E-05    0.1247032546669580E-09    0.5328903984747058E-10   -0.2315925229368077E-12   -0.9137289345290123E-09
 -0.5843  -0.0141    0.6503358479082909E-01    0.7858248244927138E-02    0.2581637333755894E-04    0.3378491870046684E+00   -0.7252991717357060E+01   -0.4222976063353106E-05    0.2346318694890215E-09    0.4749889370714300E-10   -0.2651906472195265E-12   -0.8416093655316814E-09
 -0.5969  -0.0360    0.6756613743289348E-01    0.6564600534538646E-02    0.2890383294143791E-04    0.3537450992077448E+00   -0.6058712651668212E+01   -0.3527821436292474E-05    0.3302567455620853E-09    0.4062106206959015E-10   -0.2381983499333273E-12   -0.7585477402455298E-09
 -0.6089  -0.0567    0.6784487999891527E-01    0.5244616960444505E-02    0.3023041738892953E-04    0.3699600298385469E+00   -0.4841476875776263E+01   -0.2818287054396657E-05    0.4085911747830906E-09    0.3332301101721669E-10   -0.2112199304349360E-12   -0.6702499440874865E-09
 -0.6200  -0.0761    0.6603572357998290E-01    0.3990538550885369E-02    0.2977210009057020E-04    0.3863077003081739E+00   -0.3685754577221937E+01   -0.2144006098889642E-05    0.4690613938929111E-09    0.2618852357194612E-10   -0.2125521980644862E-12   -0.5794663394953492E-09
 -0.6304  -0.0941    0.6251679597353736E-01    0.2875033508898998E-02    0.2776719405803086E-04    0.4025717468406989E+00   -0.2657992964791863E+01   -0.1544220414650347E-05    0.5129748986698601E-09    0.1967878637820775E-10   -0.1850741782050136E-12   -0.4898513036172281E-09
 -0.6400  -0.1106    0.5778352960349951E-01    0.1943215547791689E-02    0.2460857254501294E-04    0.4184999949753466E+00   -0.1799485194576011E+01   -0.1043155522633134E-05    0.5429028615555609E-09    0.1407629568461743E-10   -0.1839778329681963E-12   -0.4044108086603826E-09
 -0.6486  -0.1255    0.5235502289935864E-01    0.1212449912142503E-02    0.2071301871340738E-04    0.4338025391400440E+00   -0.1126091006137912E+01   -0.6502742254987045E-06    0.5618543477692306E-09    0.9511683107810143E-11   -0.1636052404663246E-12   -0.3246307788556946E-09
 -0.6563  -0.1389    0.4670739222779063E-01    0.6779390389477865E-03    0.1641756910861341E-04    0.4481596187298638E+00   -0.6334338535444993E+00   -0.3628712744917575E-06    0.5727151877743530E-09    0.5977812429086571E-11   -0.1980776653809357E-12   -0.2517701082338508E-09
 -0.6631  -0.1506    0.4124148985924354E-01    0.3201230182947417E-03    0.1194565118568795E-04    0.4612424947134224E+00   -0.3034034898994778E+00   -0.1705902149012589E-06    0.5780367746954784E-09    0.3410032672901409E-11   -0.2090341788552053E-12   -0.1872310535777633E-09
 -0.6688  -0.1606    0.3627698851977468E-01    0.1104853880349655E-03    0.7483131200108408E-05    0.4727440896048720E+00   -0.1095971793138208E+00   -0.5794452656036666E-07    0.5799301750625263E-09    0.1722878784082837E-11   -0.2157232725785718E-12   -0.1312225345745377E-09
 -0.6736  -0.1688    0.3205599948493463E-01    0.1390351239130151E-04    0.3343754268298468E-05    0.4824095582397627E+00   -0.1916704350623346E-01   -0.6363979991337340E-08    0.5801951757575252E-09    0.7848860450465622E-12   -0.2511012231476428E-12   -0.8465697327181276E-10
 -0.6773  -0.1752    0.2874072093099876E-01   -0.1045546195715979E-04    0.1447345682561464E-06    0.4900550232313807E+00    0.5693416410824894E-02    0.6386861848818733E-08    0.5801735471710166E-09    0.4161254674173165E-12   -0.2628483368460888E-12   -0.4788451623063961E-10
 -0.6799  -0.1798    0.2640126911180443E-01   -0.5201233386478344E-05   -0.1216452817226592E-05    0.4955677583007156E+00    0.4020633685797330E-02    0.2867767238770325E-08    0.5808671714197661E-09    0.3344425431039966E-12   -0.2960388011119530E-12   -0.2138674632355675E-10
 -0.6816  -0.1826    0.2501827448716494E-01   -0.2279826475784019E-06   -0.2278764150624902E-06    0.4988904982708282E+00    0.7506232785932036E-03    0.1942417100905304E-09    0.5821290973134080E-09    0.2081441572918119E-12   -0.1962566394120291E-12   -0.5848757459250842E-11
 -0.6821  -0.1835    0.2455865443649824E-01    0.0000000000000000E+00    0.0000000000000000E+00    0.5000000000000000E+00   -0.3780505042327745E-04    0.0000000000000000E+00    0.0000000000000000E+00    0.0000000000000000E+00    0.0000000000000000E+00    0.0000000000000000E+00
 -0.1793   0.6809    0.2529354261283486E-01    0.0000000000000000E+00    0.0000000000000000E+00   -0.5000000000000000E+00   -0.4888238572650204E-02    0.0000000000000000E+00    0.0000000000000000E+00    0.0000000000000000E+00    0.0000000000000000E+00    0.0000000000000000E+00
 -0.1798   0.6799    0.2574252625989584E-01    0.2559580781793781E-05   -0.7437315945413169E-05   -0.4948782834927887E+00   -0.9580409269287672E-02   -0.3570651676448977E-08    0.3425893848121864E-09   -0.1117130788374186E-11   -0.1541408493899166E-11    0.1484852974083239E-10
 -0.1814   0.6772    0.2705619099295233E-01    0.4191338419601070E-04   -0.4191640349281587E-04   -0.4795381868359547E+00   -0.2287567765203468E-01   -0.8044611056476272E-07    0.3403673176638478E-09   -0.3244491318405568E-11   -0.3794084837971390E-11    0.5931496439848249E-10
 -0.1841   0.6726    0.2916246802492943E-01    0.2107410351717466E-03   -0.9499366498280481E-04   -0.4540746692918973E+00   -0.5532685370763599E-01   -0.4537217497331616E-06    0.3367289710953791E-09   -0.3887436379745868E-11   -0.4758922422798406E-11    0.1331994844283590E-09
 -0.1878   0.6661    0.3200120995123564E-01    0.6026233365059432E-03   -0.1364842816513516E-03   -0.4187188732358247E+00   -0.1294452635292422E+00   -0.1334858668923044E-05    0.3334650541808593E-09   -0.2660066611426259E-11   -0.5043861162068453E-11    0.2371746722629187E-09
 -0.1926   0.6579    0.3550821786259472E-01    0.1225979254971454E-02   -0.1511822613713022E-03   -0.3739657703847217E+00   -0.2535975790514038E+00   -0.2726552131070349E-05    0.3312877194794339E-09   -0.5691835891497021E-12   -0.4968865596755023E-11    0.3711581424148402E-09
 -0.1983   0.6479    0.3954655374919803E-01    0.1990874786193324E-02   -0.1383757970853419E-03   -0.3207611743371292E+00   -0.4132528449625331E+00   -0.4416781011914240E-05    0.3300809625628176E-09    0.1164138230258516E-11   -0.4717747026372621E-11    0.5359347202138487E-09
 -0.2051   0.6362    0.4386613259878717E-01    0.2749342651126011E-02   -0.1053612831463155E-03   -0.2606977231612881E+00   -0.5784115918943457E+00   -0.6074264767914409E-05    0.3290552552659420E-09    0.1387848169720485E-11   -0.4383236829053061E-11    0.7318223319008332E-09
 -0.2128   0.6229    0.4810462162860691E-01    0.3351352937932185E-02   -0.6294300615835719E-04   -0.1961173900152679E+00   -0.7166326694046958E+00   -0.7369564132426858E-05    0.3268687820412453E-09   -0.6965955590132467E-12   -0.4029991618192952E-11    0.9589679744737012E-09