 title="result"
 variables="x","y","P","u","v","t","omega","psi","RES1","RES2","RES3","RES4"
zone,j= 49,i= 49,f=point
 -0.5000   0.5000    0.2277357827072551E-01    0.0000000000000000E+00    0.0000000000000000E+00   -0.5000000000000000E+00    0.0000000000000000E+00    0.0000000000000000E+00    0.0000000000000000E+00    0.0000000000000000E+00    0.0000000000000000E+00    0.0000000000000000E+00
 -0.5000   0.4989    0.2330408351737050E-01    0.0000000000000000E+00    0.0000000000000000E+00   -0.4963881048695425E+00   -0.3804242256546022E-03    0.0000000000000000E+00    0.0000000000000000E+00    0.0000000000000000E+00    0.0000000000000000E+00    0.0000000000000000E+00
 -0.5000   0.4957    0.2489171058689162E-01    0.0000000000000000E+00    0.0000000000000000E+00   -0.4855692192401459E+00   -0.4694812491140661E-02    0.0000000000000000E+00    0.0000000000000000E+00    0.0000000000000000E+00    0.0000000000000000E+00    0.0000000000000000E+00
 -0.5000   0.4904    0.2750549867799714E-01    0.0000000000000000E+00    0.0000000000000000E+00   -0.4676014005372551E+00   -0.1088730940642952E-02    0.0000000000000000E+00    0.0000000000000000E+00    0.0000000000000000E+00    0.0000000000000000E+00    0.0000000000000000E+00
 -0.5000   0.4830    0.3101118914451629E-01    0.0000000000000000E+00    0.0000000000000000E+00   -0.4426041047361667E+00    0.3569537502644923E-01    0.0000000000000000E+00    0.0000000000000000E+00    0.0000000000000000E+00    0.0000000000000000E+00    0.0000000000000000E+00
 -0.5000   0.4735    0.3514689124424434E-01    0.0000000000000000E+00    0.0000000000000000E+00   -0.4107807230069216E+00    0.1220786597912898E+00    0.0000000000000000E+00    0.0000000000000000E+00    0.0000000000000000E+00    0.0000000000000000E+00    0.0000000000000000E+00
 -0.5000   0.4619    0.3957277618491472E-01    0.0000000000000000E+00    0.0000000000000000E+00   -0.3724320730119794E+00    0.2562656503119634E+00    0.0000000000000000E+00    0.0000000000000000E+00    0.0000000000000000E+00    0.0000000000000000E+00    0.0000000000000000E+00
 -0.5000   0.4484    0.4391659509968204E-01    0.0000000000000000E+00    0.0000000000000000E+00   -0.3279640216291825E+00    0.4181009743689476E+00    0.0000000000000000E+00    0.0000000000000000E+00    0.0000000000000000E+00    0.0000000000000000E+00    0.0000000000000000E+00
 -0.5000   0.4330    0.4781885715874760E-01    0.0000000000000000E+00    0.0000000000000000E+00   -0.2779151158428285E+00    0.5734544753504138E+00    0.0000000000000000E+00    0.0000000000000000E+00    0.0000000000000000E+00    0.0000000000000000E+00    0.0000000000000000E+00
 -0.5000   0.4157    0.5096703951446940E-01    0.0000000000000000E+00    0.0000000000000000E+00   -0.2230418218450817E+00    0.6821723835886649E+00    0.0000000000000000E+00    0.0000000000000000E+00    0.0000000000000000E+00    0.0000000000000000E+00    0.0000000000000000E+00
 -0.5000   0.3967    0.5311698023977894E-01    0.0000000000000000E+00    0.0000000000000000E+00   -0.1644834260651843E+00    0.7079080180619646E+00    0.0000000000000000E+00    0.0000000000000000E+00    0.0000000000000000E+00    0.0000000000000000E+00    0.0000000000000000E+00
 -0.5000   0.3759    0.5409548393773021E-01    0.0000000000000000E+00    0.0000000000000000E+00   -0.1039768557890099E+00    0.6270810907118609E+00    0.0000000000000000E+00    0.0000000000000000E+00    0.0000000000000000E+00    0.0000000000000000E+00    0.0000000000000000E+00
 -0.5000   0.3536    0.5379310607917168E-01    0.0000000000000000E+00    0.0000000000000000E+00   -0.4400706946689124E-01    0.4327891254421478E+00    0.0000000000000000E+00    0.0000000000000000E+00    0.0000000000000000E+00    0.0000000000000000E+00    0.0000000000000000E+00
 -0.5000   0.3297    0.5216160073386505E-01    0.0000000000000000E+00    0.0000000000000000E+00    0.1229821372105766E-01    0.1315294354202094E+00    0.0000000000000000E+00    0.0000000000000000E+00    0.0000000000000000E+00    0.0000000000000000E+00    0.0000000000000000E+00
 -0.5000   0.3044    0.4922809214771218E-01    0.0000000000000000E+00    0.0000000000000000E+00    0.6169082296726436E-01   -0.2652786728825154E+00    0.0000000000000000E+00    0.0000000000000000E+00    0.0000000000000000E+00    0.0000000000000000E+00    0.0000000000000000E+00
 -0.5000   0.2778    0.4511619857534969E-01    0.0000000000000000E+00    0.0000000000000000E+00    0.1016761167985146E+00   -0.7493831685598330E+00    0.0000000000000000E+00    0.0000000000000000E+00    0.0000000000000000E+00    0.0000000000000000E+00    0.0000000000000000E+00
 -0.5000   0.2500    0.4005234182596396E-01    0.0000000000000000E+00    0.0000000000000000E+00    0.1313405782050797E+00   -0.1318958396179828E+01    0.0000000000000000E+00    0.0000000000000000E+00    0.0000000000000000E+00    0.0000000000000000E+00    0.0000000000000000E+00
 -0.5000   0.2211    0.3434526076109765E-01    0.0000000000000000E+00    0.0000000000000000E+00    0.1516140711799560E+00   -0.1976592149827099E+01    0.0000000000000000E+00    0.0000000000000000E+00    0.0000000000000000E+00    0.0000000000000000E+00    0.0000000000000000E+00
 -0.5000   0.1913    0.2835238196736984E-01    0.0000000000000000E+00    0.0000000000000000E+00    0.1647668193218739E+00   -0.2724296353539262E+01    0.0000000000000000E+00    0.0000000000000000E+00    0.0000000000000000E+00    0.0000000000000000E+00    0.0000000000000000E+00
 -0.5000   0.1607    0.2245279748247507E-01    0.0000000000000000E+00    0.0000000000000000E+00    0.1734706233532825E+00   -0.3557694542252984E+01    0.0000000000000000E+00    0.0000000000000000E+00    0.0000000000000000E+00    0.0000000000000000E+00    0.0000000000000000E+00
 -0.5000   0.1294    0.1703208028082322E-01    0.0000000000000000E+00    0.0000000000000000E+00    0.1799921324486320E+00   -0.4461299622184717E+01    0.0000000000000000E+00    0.0000000000000000E+00    0.0000000000000000E+00    0.0000000000000000E+00    0.0000000000000000E+00
 -0.5000   0.0975    0.1246809301031835E-01    0.0000000000000000E+00    0.0000000000000000E+00    0.1858535320670723E+00   -0.5406596749460328E+01    0.0000000000000000E+00    0.0000000000000000E+00    0.0000000000000000E+00    0.0000000000000000E+00    0.0000000000000000E+00
 -0.5000   0.0653    0.9107607657319617E-02    0.0000000000000000E+00    0.0000000000000000E+00    0.1919047093760163E+00   -0.6353553839806959E+01    0.0000000000000000E+00    0.0000000000000000E+00    0.0000000000000000E+00    0.0000000000000000E+00    0.0000000000000000E+00
 -0.5000   0.0327    0.7232270536542611E-02    0.0000000000000000E+00    0.0000000000000000E+00    0.1985610183510862E+00   -0.7254497362251832E+01    0.0000000000000000E+00    0.0000000000000000E+00    0.0000000000000000E+00    0.0000000000000000E+00    0.0000000000000000E+00
 -0.5000   0.0000    0.7020691683488258E-02    0.0000000000000000E+00    0.0000000000000000E+00    0.2060155014588483E+00   -0.8058680258986799E+01    0.0000000000000000E+00    0.0000000000000000E+00    0.0000000000000000E+00    0.0000000000000000E+00    0.0000000000000000E+00
 -0.5000  -0.0327    0.8514618181897091E-02    0.0000000000000000E+00    0.0000000000000000E+00    0.2143644528869743E+00   -0.8716322845350126E+01    0.0000000000000000E+00    0.0000000000000000E+00    0.0000000000000000E+00    0.0000000000000000E+00    0.0000000000000000E+00
 -0.5000  -0.0653    0.1159542727792509E-01    0.0000000000000000E+00    0.0000000000000000E+00    0.2236633872453524E+00   -0.9181943537826269E+01    0.0000000000000000E+00    0.0000000000000000E+00    0.0000000000000000E+00    0.0000000000000000E+00    0.0000000000000000E+00
 -0.5000  -0.0975    0.1597474964834030E-01    0.0000000000000000E+00    0.0000000000000000E+00    0.2339459038072151E+00   -0.9417504474058125E+01    0.0000000000000000E+00    0.0000000000000000E+00    0.0000000000000000E+00    0.0000000000000000E+00    0.0000000000000000E+00
 -0.5000  -0.1294    0.2120331628468599E-01    0.0000000000000000E+00    0.0000000000000000E+00    0.2452272340517983E+00   -0.9396095823132054E+01    0.0000000000000000E+00    0.0000000000000000E+00    0.0000000000000000E+00    0.0000000000000000E+00    0.0000000000000000E+00
 -0.5000  -0.1607    0.2670250139324836E-01    0.0000000000000000E+00    0.0000000000000000E+00    0.2575027327384345E+00   -0.9106337501258245E+01    0.0000000000000000E+00    0.0000000000000000E+00    0.0000000000000000E+00    0.0000000000000000E+00    0.0000000000000000E+00
 -0.5000  -0.1913    0.3182185047732123E-01    0.0000000000000000E+00    0.0000000000000000E+00    0.2707454222387595E+00   -0.8556801560398023E+01    0.0000000000000000E+00    0.0000000000000000E+00    0.0000000000000000E+00    0.0000000000000000E+00    0.0000000000000000E+00
 -0.5000  -0.2211    0.3591981337777995E-01    0.0000000000000000E+00    0.0000000000000000E+00    0.2849042312654161E+00   -0.7778824528751690E+01    0.0000000000000000E+00    0.0000000000000000E+00    0.0000000000000000E+00    0.0000000000000000E+00    0.0000000000000000E+00
 -0.5000  -0.2500    0.3845555997630629E-01    0.0000000000000000E+00    0.0000000000000000E+00    0.2999035172483772E+00   -0.6825819956238495E+01    0.0000000000000000E+00    0.0000000000000000E+00    0.0000000000000000E+00    0.0000000000000000E+00    0.0000000000000000E+00
 -0.5000  -0.2778    0.3907069437598697E-01    0.0000000000000000E+00    0.0000000000000000E+00    0.3156436801155135E+00   -0.5767870370427394E+01    0.0000000000000000E+00    0.0000000000000000E+00    0.0000000000000000E+00    0.0000000000000000E+00    0.0000000000000000E+00
 -0.5000  -0.3044    0.3763789679018771E-01    0.0000000000000000E+00    0.0000000000000000E+00    0.3320019028756965E+00   -0.4682078983317577E+01    0.0000000000000000E+00    0.0000000000000000E+00    0.0000000000000000E+00    0.0000000000000000E+00    0.0000000000000000E+00
 -0.5000  -0.3297    0.3426209290403649E-01    0.0000000000000000E+00    0.0000000000000000E+00    0.3488315378096681E+00   -0.3640990620734523E+01    0.0000000000000000E+00    0.0000000000000000E+00    0.0000000000000000E+00    0.0000000000000000E+00    0.0000000000000000E+00
 -0.5000  -0.3536    0.2923627026605937E-01    0.0000000000000000E+00    0.0000000000000000E+00    0.3659588862527272E+00   -0.2702436928085973E+01    0.0000000000000000E+00    0.0000000000000000E+00    0.0000000000000000E+00    0.0000000000000000E+00    0.0000000000000000E+00
 -0.5000  -0.3759    0.2296964201336747E-01    0.0000000000000000E+00    0.0000000000000000E+00    0.3831774645022656E+00   -0.1903587207173336E+01    0.0000000000000000E+00    0.0000000000000000E+00    0.0000000000000000E+00    0.0000000000000000E+00    0.0000000000000000E+00
 -0.5000  -0.3967    0.1591236012564688E-01    0.0000000000000000E+00    0.0000000000000000E+00    0.4002421037620694E+00   -0.1260253288533114E+01    0.0000000000000000E+00    0.0000000000000000E+00    0.0000000000000000E+00    0.0000000000000000E+00    0.0000000000000000E+00
 -0.5000  -0.4157    0.8496450039022120E-02    0.0000000000000000E+00    0.0000000000000000E+00    0.4168673116964094E+00   -0.7704763298432620E+00    0.0000000000000000E+00    0.0000000000000000E+00    0.0000000000000000E+00    0.0000000000000000E+00    0.0000000000000000E+00
 -0.5000  -0.4330    0.1101415765687384E-02    0.0000000000000000E+00    0.0000000000000000E+00    0.4327346039830864E+00   -0.4202536954408839E+00    0.0000000000000000E+00    0.0000000000000000E+00    0.0000000000000000E+00    0.0000000000000000E+00    0.0000000000000000E+00
 -0.5000  -0.4484   -0.5957449044551662E-02    0.0000000000000000E+00    0.0000000000000000E+00    0.4475109297731691E+00   -0.1891325767239241E+00    0.0000000000000000E+00    0.0000000000000000E+00    0.0000000000000000E+00    0.0000000000000000E+00    0.0000000000000000E+00
 -0.5000  -0.4619   -0.1242670039823621E-01    0.0000000000000000E+00    0.0000000000000000E+00    0.4608755273863627E+00   -0.5411325348181182E-01    0.0000000000000000E+00    0.0000000000000000E+00    0.0000000000000000E+00    0.0000000000000000E+00    0.0000000000000000E+00
 -0.5000  -0.4735   -0.1810761223075471E-01    0.0000000000000000E+00    0.0000000000000000E+00    0.4725479824851432E+00    0.8594814969762398E-02    0.0000000000000000E+00    0.0000000000000000E+00    0.0000000000000000E+00    0.0000000000000000E+00    0.0000000000000000E+00
 -0.5000  -0.4830   -0.2285263367035038E-01    0.0000000000000000E+00    0.0000000000000000E+00    0.4823086970703057E+00    0.2336849094653963E-01    0.0000000000000000E+00    0.0000000000000000E+00    0.0000000000000000E+00    0.0000000000000000E+00    0.0000000000000000E+00
 -0.5000  -0.4904   -0.2656701177367456E-01    0.0000000000000000E+00    0.0000000000000000E+00    0.4900056561163016E+00    0.1449178985103208E-01    0.0000000000000000E+00    0.0000000000000000E+00    0.0000000000000000E+00    0.0000000000000000E+00    0.0000000000000000E+00
 -0.5000  -0.4957   -0.2921290472962746E-01    0.0000000000000000E+00    0.0000000000000000E+00    0.4955470996236712E+00    0.3224195775243028E-02    0.0000000000000000E+00    0.0000000000000000E+00    0.0000000000000000E+00    0.0000000000000000E+00    0.0000000000000000E+00
 -0.5000  -0.4989   -0.3080072853039570E-01    0.0000000000000000E+00    0.0000000000000000E+00    0.4988854061404460E+00   -0.1596590323328157E-03    0.0000000000000000E+00    0.0000000000000000E+00    0.0000000000000000E+00    0.0000000000000000E+00    0.0000000000000000E+00
 -0.5000  -0.5000   -0.3133377762444484E-01    0.0000000000000000E+00    0.0000000000000000E+00    0.5000000000000000E+00    0.0000000000000000E+00    0.0000000000000000E+00    0.0000000000000000E+00    0.0000000000000000E+00    0.0000000000000000E+00    0.0000000000000000E+00
 -0.4989   0.5000    0.2277640771545255E-01    0.0000000000000000E+00    0.0000000000000000E+00   -0.5000000000000000E+00   -0.3803864542373608E-03    0.0000000000000000E+00    0.0000000000000000E+00    0.0000000000000000E+00    0.0000000000000000E+00    0.0000000000000000E+00
 -0.4989   0.4989    0.2330691351141911E-01    0.3649170753158939E-06   -0.3649273198501283E-06   -0.4963880378359471E+00   -0.5620370430393070E-03   -0.2598682181495059E-09   -0.2594418717404359E-09   -0.4256299089219762E-12   -0.4206912596060874E-12    0.2936289991532781E-11
 -0.4989   0.4957    0.2489264371488134E-01    0.3316789866667881E-05   -0.4508105041340699E-06   -0.4855689541261889E+00   -0.1439902975609357E-02   -0.2024564965085679E-08   -0.2621931687605064E-09   -0.7668024201712420E-12   -0.5937730945218978E-12    0.1157076951613378E-10
 -0.4989   0.4904    0.2749805653660008E-01   -0.2249932858158599E-05    0.1506424246398722E-05   -0.4676008291393254E+00    0.5454331298104667E-02    0.5819761109476343E-09   -0.2646189435108470E-09   -0.8141785856619066E-12   -0.5754407367275505E-12    0.2596123316322974E-10
 -0.4989   0.4830    0.3099151682062405E-01   -0.4117305729717002E-04    0.3993578880137966E-05   -0.4426031755938657E+00    0.4130828354724895E-01    0.2155259686240362E-07   -0.2662415132109741E-09   -0.8111324112380913E-12   -0.5729271224108601E-12    0.4699351671688667E-10
 -0.4989   0.4735    0.3511759910104900E-01   -0.1310134718433876E-03    0.6000291900866470E-05   -0.4107794456987905E+00    0.1227407149190543E+00    0.7005923850110944E-07   -0.2676065792572846E-09   -0.8473628699753877E-12   -0.5972965178013823E-12    0.7602130036588051E-10
 -0.4989   0.4619    0.3953917924143496E-01   -0.2705792271686163E-03    0.6854331073701797E-05   -0.3724304733847233E+00    0.2492349237530847E+00    0.1455204925449248E-06   -0.2690141373551391E-09   -0.9667197597984512E-12   -0.5699676841608436E-12    0.1171834469737565E-09
 -0.4989   0.4484    0.4388515467917300E-01   -0.4391637435460069E-03    0.6425037980058153E-05   -0.3279620669013563E+00    0.4023327143995737E+00    0.2365580957337885E-06   -0.2711053551790465E-09   -0.1155409101727400E-11   -0.6055815571226475E-12    0.1760751631302293E-09
 -0.4989   0.4330    0.4779547946241202E-01   -0.6010895779037498E-03    0.4768717727136633E-05   -0.2779126442925899E+00    0.5494643937573570E+00    0.3240332547947423E-06   -0.2745283375626961E-09   -0.1286616646556382E-11   -0.6092210069752468E-12    0.2616144037514978E-09
 -0.4989   0.4157    0.5095615809463084E-01   -0.7140659344565755E-03    0.2232336829595761E-05   -0.2230385130536975E+00    0.6518095346702252E+00    0.3850946235529161E-06   -0.2800081217238515E-09   -0.1159433660191667E-11   -0.6043707201364157E-12    0.3851265521770397E-09
 -0.4989   0.3967    0.5312070136718867E-01   -0.7395857346745166E-03   -0.7443197467709204E-06   -0.1644788446510843E+00    0.6737470248278365E+00    0.3991329201953842E-06   -0.2882750264627393E-09   -0.5405953462656043E-12   -0.6375624854448869E-12    0.5563014215947959E-09
 -0.4989   0.3759    0.5411357427467437E-01   -0.6524129424605032E-03   -0.3657204292261376E-05   -0.1039705960026596E+00    0.5917283783039676E+00    0.3525753991528399E-06   -0.3001894462173471E-09    0.7317063621670172E-12   -0.6661650397976615E-12    0.7765154491634618E-09
 -0.4989   0.3536    0.5382356194286668E-01   -0.4448288352332227E-03   -0.6169980910783716E-05   -0.4399899427077764E-01    0.3982148606071331E+00    0.2414017545055579E-06   -0.3167614243820838E-09    0.2699201973044296E-11   -0.6355506398936228E-12    0.1028710637507313E-08
 -0.4989   0.3297    0.5220187032469704E-01   -0.1233241872353172E-03   -0.8153807512993963E-05    0.1230773071665304E-01    0.9884528644095407E-01    0.6912274433697497E-07   -0.3388312286994877E-09    0.5289629845250943E-11   -0.6153133558228774E-12    0.1268926838604578E-08
 -0.4989   0.3044    0.4927609877453371E-01    0.3002225791938409E-03   -0.9723091614929906E-05    0.6170083391542729E-01   -0.2956213159867810E+00   -0.1578024031802979E-06   -0.3662277668625702E-09    0.8412687213521508E-11   -0.5987085827108274E-12    0.1430261881152362E-08
 -0.4989   0.2778    0.4517087319217161E-01    0.8170692173073776E-03   -0.1106998408364620E-04    0.1016853575028948E+00   -0.7770948883660334E+00   -0.4347122950527848E-06   -0.3968836335965786E-09    0.1201551358409603E-10   -0.5470832120657576E-12    0.1443228966890864E-08
 -0.4989   0.2500    0.4011342218764906E-01    0.1425104978845558E-02   -0.1237098760539018E-04    0.1313479644032322E+00   -0.1343464210286998E+01   -0.7604745702950233E-06   -0.4266539968544869E-09    0.1607367711153884E-10   -0.4570857581320809E-12    0.1267250429592970E-08
 -0.4989   0.2211    0.3441281967859008E-01    0.2126774162106063E-02   -0.1368406819258396E-04    0.1516191186885267E+00   -0.1996699734643024E+01   -0.1136481953689984E-05   -0.4502859231314549E-09    0.2057092690632700E-10   -0.3935324288661946E-12    0.9125699154677314E-09
 -0.4989   0.1913    0.2842622538794256E-01    0.2923803242727081E-02   -0.1496470402730353E-04    0.1647697104325925E+00   -0.2738019237971448E+01   -0.1563711323824890E-05   -0.4627864029493889E-09    0.2548483646336308E-10   -0.2674804822078158E-12    0.4362308396455017E-09
 -0.4989   0.1607    0.2253201967110622E-01    0.3811062596590335E-02   -0.1606034701693102E-04    0.1734719369719752E+00   -0.3562210470593086E+01   -0.2039516564315613E-05   -0.4601809315551986E-09    0.3073922887064651E-10   -0.1526279103103434E-12   -0.8471364928985814E-10
 -0.4989   0.1294    0.1711478252035229E-01    0.4771622915182207E-02   -0.1677654918690692E-04    0.1799924924413284E+00   -0.4453136675962837E+01   -0.2554880362067787E-05   -0.4398615152667595E-09    0.3608323015380499E-10   -0.4203581926986999E-13   -0.5828662214338309E-09
 -0.4989   0.0975    0.1255143968394532E-01    0.5774816517760534E-02   -0.1691580223777118E-04    0.1858533957422810E+00   -0.5382016136937726E+01   -0.3093428238944443E-05   -0.4005624998359991E-09    0.4109782653083371E-10    0.5209721543053547E-13   -0.1016748717337645E-08
 -0.4989   0.0653    0.9188057679499938E-02    0.6777917205065145E-02   -0.1633996073429859E-04    0.1919043333455937E+00   -0.6309062473154118E+01   -0.3632253532488744E-05   -0.3422180733236857E-09    0.4525929631071790E-10    0.1693228890431442E-12   -0.1369845299258737E-08
 -0.4989   0.0327    0.7305931757737536E-02    0.7730296710908028E-02   -0.1497127615031903E-04    0.1985605173863685E+00   -0.7187363403989937E+01   -0.4144195467526689E-05   -0.2661876136178520E-09    0.4808964337854604E-10    0.2461225667715894E-12   -0.1642030965191832E-08
 -0.4989   0.0000    0.7083590173837312E-02    0.8578277167497836E-02   -0.1279710934143116E-04    0.2060149164173727E+00   -0.7967386010709298E+01   -0.4600396368418074E-05   -0.1751064918065204E-09    0.4923117469246563E-10    0.3120975700099393E-12   -0.1840676196532276E-08
 -0.4989  -0.0327    0.8562926537684919E-02    0.9269404358939651E-02   -0.9841783096127253E-05    0.2143637942636964E+00   -0.8600913494889843E+01   -0.4972637960220394E-05   -0.7284998992940217E-10    0.4856709479028609E-10    0.3251357516553810E-12   -0.1975246206181724E-08
 -0.4989  -0.0653    0.1162561179646580E-01    0.9755952881219242E-02   -0.6168242088478349E-05    0.2236626558414665E+00   -0.9044266581447436E+01   -0.5235195869751094E-05    0.3589002012249765E-10    0.4616546034341695E-10    0.2807788723746540E-12   -0.2054612060348182E-08
 -0.4989  -0.0975    0.1598378900004810E-01    0.9998227098901483E-02   -0.1876070740775982E-05    0.2339450988005946E+00   -0.9261323427480821E+01   -0.5366644110954612E-05    0.1460392778929176E-09    0.4220651605990611E-10    0.2314945110604150E-12   -0.2086266893616684E-08
 -0.4989  -0.1294    0.2118897991496513E-01    0.9968410834787354E-02    0.2871180393262235E-05    0.2452263557365578E+00   -0.9227026949012853E+01   -0.5351913733341270E-05    0.2526302968902661E-09    0.3704764273138039E-10    0.1237690505639932E-12   -0.2077115665230500E-08
 -0.4989  -0.1607    0.2666376530629836E-01    0.9655148956188228E-02    0.7831619554516570E-05    0.2575017831546395E+00   -0.8931545148484757E+01   -0.5184780439798023E-05    0.3513138668864713E-09    0.3110534052552794E-10   -0.2196159920586638E-13   -0.2032640378929473E-08
 -0.4989  -0.1913    0.3175930139235610E-01    0.9068117160562966E-02    0.1267474416100455E-04    0.2707444047401049E+00   -0.8384381090088024E+01   -0.4870335186359154E-05    0.4388137388178226E-09    0.2485373018501491E-10   -0.1726258025414040E-12   -0.1957561137494457E-08
 -0.4989  -0.2211    0.3583596415304302E-01    0.8240879461661766E-02    0.1701061775206672E-04    0.2849031493519168E+00   -0.7616905953387422E+01   -0.4426538213192408E-05    0.5133200184359588E-09    0.1876376831688731E-10   -0.3365363543395006E-12   -0.1856342893638563E-08
 -0.4989  -0.2500    0.3835483542916417E-01    0.7230069775473309E-02    0.2044703509130383E-04    0.2999023730083923E+00   -0.6681507446082618E+01   -0.3883806469696501E-05    0.5745179124105881E-09    0.1327821186336564E-10   -0.4975603262735717E-12   -0.1734214709336879E-08
 -0.4989  -0.2778    0.3895905560550744E-01    0.6109654657696788E-02    0.2267209342319911E-04    0.3156424729234823E+00   -0.5646291925829069E+01   -0.3281913514216325E-05    0.6234726901421794E-09    0.8765710379776692E-11   -0.6628170234890263E-12   -0.1595409438240325E-08
 -0.4989  -0.3044    0.3752206359065371E-01    0.4960799001066957E-02    0.2352896814647097E-04    0.3320006293002576E+00   -0.4585783685756706E+01   -0.2664559906631443E-05    0.6622567771952248E-09    0.5400652147713458E-11   -0.7692457781871553E-12   -0.1444632960131975E-08
 -0.4989  -0.3297    0.3414862726570353E-01    0.3859757655296975E-02    0.2305039300773079E-04    0.3488301936967009E+00   -0.3569903009389450E+01   -0.2072799802833094E-05    0.6932599216913360E-09    0.3186895192186512E-11   -0.8604783552357276E-12   -0.1286828896912562E-08
 -0.4989  -0.3536    0.2913070919351315E-01    0.2867279051664770E-02    0.2144440912832090E-04    0.3659574714211278E+00   -0.2654300743070114E+01   -0.1539374188103907E-05    0.7186242573231638E-09    0.1978806007940648E-11   -0.9125478150906474E-12   -0.1125987639932768E-08
 -0.4989  -0.3759    0.2287599010481892E-01    0.2022408974662928E-02    0.1902324396338975E-04    0.3831759893444128E+00   -0.1874761751211574E+01   -0.1085294053639836E-05    0.7399226162330130E-09    0.1508709823738741E-11   -0.9502815201400949E-12   -0.9670349312984605E-09
 -0.4989  -0.3967    0.1583294977999131E-01    0.1341773230533116E-02    0.1612836038462934E-04    0.4002405956131554E+00   -0.1246523530342809E+01   -0.7195397486610792E-06    0.7580425454012385E-09    0.1482224065707527E-11   -0.9685863222586022E-12   -0.8127564767035356E-09
 -0.4989  -0.4157    0.8432200975998887E-02    0.8233257281642923E-03    0.1304566839123516E-04    0.4168658178665894E+00   -0.7677368568982137E+00   -0.4409727478735305E-06    0.7733399094711491E-09    0.1645657568549730E-11   -0.9606898609959558E-12   -0.6672665042034565E-09
 -0.4989  -0.4330    0.1052236192176816E-02    0.4523280133982472E-03    0.9983854772770254E-05    0.4327331886874340E+00   -0.4248531661462552E+00   -0.2417025116236271E-06    0.7859404793642000E-09    0.1808615757159515E-11   -0.9517248100721076E-12   -0.5327069271809926E-09
 -0.4989  -0.4484   -0.5992220226949312E-02    0.2071860026966813E-03    0.7052709481723480E-05    0.4475096641161765E+00   -0.1980065892722593E+00   -0.1100620073288644E-06    0.7958861937551465E-09    0.1876269972722611E-11   -0.9387490784718011E-12   -0.4113908796954391E-09
 -0.4989  -0.4619   -0.1244810159114499E-01    0.6352896110666968E-04    0.4335385436559402E-05    0.4608744744039672E+00   -0.6463684352898962E-01   -0.3303178432120976E-07    0.8034285407104713E-09    0.1823676626377946E-11   -0.9295862690716916E-12   -0.3040410614246758E-09
 -0.4989  -0.4735   -0.1811716990554737E-01   -0.3947968778611096E-05    0.1913550676767661E-05    0.4725471817396554E+00   -0.1299292156813469E-02    0.3054182755387222E-08    0.8088905829872761E-09    0.1689915568592326E-11   -0.9064832218186325E-12   -0.2121653313105765E-09
 -0.4989  -0.4830   -0.2285285169913090E-01   -0.2116072028336391E-04    0.2063501291398592E-07    0.4823081542839084E+00    0.1611828181139448E-01    0.1197889161349309E-07    0.8129824985550526E-09    0.1528464854683165E-11   -0.9164687238272240E-12   -0.1364432187025977E-09
 -0.4989  -0.4904   -0.2656216144266023E-01   -0.1377525022084801E-04   -0.1057338314769856E-05    0.4900053420501269E+00    0.1117444900751779E-01    0.7722866663297313E-08    0.8163411010543575E-09    0.1384066472542855E-11   -0.8932698331021172E-12   -0.7701404054413774E-10
 -0.4989  -0.4957   -0.2920904891083032E-01   -0.3496018931039450E-05   -0.9884627988880161E-06    0.4955469588251666E+00    0.3423840687334250E-02    0.1822732284904053E-08    0.8202859110278266E-09    0.1224262336473048E-11   -0.9383683066688242E-12   -0.3421060017303607E-10
 -0.4989  -0.4989   -0.3079910921124834E-01   -0.6718662198930421E-07   -0.6749089753798415E-07    0.4988853708982336E+00    0.4456896180546876E-03    0.6081266083186656E-10    0.8245490385307488E-09    0.6398504772894831E-12   -0.6456116023734193E-12   -0.8773733828218791E-11
 -0.4989  -0.5000   -0.3133215910127365E-01    0.0000000000000000E+00    0.0000000000000000E+00    0.5000000000000000E+00   -0.1590805224303115E-03    0.0000000000000000E+00    0.0000000000000000E+00    0.0000000000000000E+00    0.0000000000000000E+00    0.0000000000000000E+00
 -0.4957   0.5000    0.2276336657692917E-01    0.0000000000000000E+00    0.0000000000000000E+00   -0.5000000000000000E+00   -0.4695026418926490E-02    0.0000000000000000E+00    0.0000000000000000E+00    0.0000000000000000E+00    0.0000000000000000E+00    0.0000000000000000E+00
 -0.4957   0.4989    0.2329576633379708E-01    0.4509124908647751E-06   -0.3317179089655449E-05   -0.4963870333394436E+00   -0.1440446090190793E-02   -0.2024768386786459E-08   -0.2621432887385186E-09   -0.6284608792574142E-12   -0.7882128109926168E-12    0.2966630521968050E-11
 -0.4957   0.4957    0.2488149069023166E-01   -0.8288317280411332E-06    0.8308071018960885E-06   -0.4855649778640186E+00    0.6823142267469700E-02   -0.1026789402430195E-07   -0.2631667232223800E-09   -0.1800358473413866E-11   -0.1867447169123793E-11    0.1151016868622401E-10
 -0.4957   0.4904    0.2747219088467958E-01   -0.3883647976152382E-04    0.2586720699725727E-04   -0.4675921948085217E+00    0.2144059053159495E-01    0.5692639385690261E-07   -0.2648137473193479E-09   -0.2585725036863273E-11   -0.2232845852656595E-11    0.2582376586873769E-10
 -0.4957   0.4830    0.3093839992247796E-01   -0.1911590098174435E-03    0.6112457979832817E-04   -0.4425888766459899E+00    0.5522769461912778E-01    0.3854867600527554E-06   -0.2663424723825525E-09   -0.2920370542613959E-11   -0.2304004209641164E-11    0.4682342274325846E-10
 -0.4957   0.4735    0.3503995050725561E-01   -0.5228174560944718E-03    0.9040102794171069E-04   -0.4107592523751072E+00    0.1231446854852903E+00    0.1119830882744429E-05   -0.2676756177821815E-09   -0.3255598915452573E-11   -0.2267977472492078E-11    0.7609012031561946E-10
 -0.4957   0.4619    0.3944972012282699E-01   -0.1035520055553570E-02    0.1036297550698988E-03   -0.3724044094650363E+00    0.2279972338700121E+00    0.2258322443799281E-05   -0.2691370806773286E-09   -0.3815000398921242E-11   -0.2261069803610738E-11    0.1171073498590358E-09
 -0.4957   0.4484    0.4380096912585770E-01   -0.1656324664137336E-02    0.9719412649034635E-04   -0.3279294483581842E+00    0.3559380825004699E+00    0.3635551129782706E-05   -0.2712098531865159E-09   -0.4587254187615741E-11   -0.2282108529927385E-11    0.1759298783043928E-09
 -0.4957   0.4330    0.4773310190185449E-01   -0.2252762404229296E-02    0.7209962073361192E-04   -0.2778711502306679E+00    0.4791416712780030E+00    0.4958889011788540E-05   -0.2745635177547889E-09   -0.5121444934808039E-11   -0.2373518048770507E-11    0.2615250307980155E-09