 title="result"
 variables="x","y","P","u","v","t","omega","psi","RES1","RES2","RES3","RES4"
zone,j= 49,i= 49,f=point
 -0.4441   0.5503    0.2443641457763913E-01    0.0000000000000000E+00    0.0000000000000000E+00   -0.5000000000000000E+00    0.0000000000000000E+00    0.0000000000000000E+00    0.0000000000000000E+00    0.0000000000000000E+00    0.0000000000000000E+00    0.0000000000000000E+00
 -0.4442   0.5492    0.2496439988412655E-01    0.0000000000000000E+00    0.0000000000000000E+00   -0.4960331278485733E+00   -0.2326592556542297E-03    0.0000000000000000E+00    0.0000000000000000E+00    0.0000000000000000E+00    0.0000000000000000E+00    0.0000000000000000E+00
 -0.4446   0.5460    0.2653351017072139E-01    0.0000000000000000E+00    0.0000000000000000E+00   -0.4841511636420603E+00   -0.4358521294100356E-02    0.0000000000000000E+00    0.0000000000000000E+00    0.0000000000000000E+00    0.0000000000000000E+00    0.0000000000000000E+00
 -0.4451   0.5407    0.2909696000489305E-01    0.0000000000000000E+00    0.0000000000000000E+00   -0.4644198274131344E+00   -0.7758919480690158E-02    0.0000000000000000E+00    0.0000000000000000E+00    0.0000000000000000E+00    0.0000000000000000E+00    0.0000000000000000E+00
 -0.4459   0.5333    0.3252844385676883E-01    0.0000000000000000E+00    0.0000000000000000E+00   -0.4369794836861438E+00    0.5078148074541611E-02    0.0000000000000000E+00    0.0000000000000000E+00    0.0000000000000000E+00    0.0000000000000000E+00    0.0000000000000000E+00
 -0.4469   0.5239    0.3659474759252559E-01    0.0000000000000000E+00    0.0000000000000000E+00   -0.4020840895797116E+00    0.4615130807258470E-01    0.0000000000000000E+00    0.0000000000000000E+00    0.0000000000000000E+00    0.0000000000000000E+00    0.0000000000000000E+00
 -0.4481   0.5124    0.4098649878876750E-01    0.0000000000000000E+00    0.0000000000000000E+00   -0.3601435437167372E+00    0.1162784811564205E+00    0.0000000000000000E+00    0.0000000000000000E+00    0.0000000000000000E+00    0.0000000000000000E+00    0.0000000000000000E+00
 -0.4496   0.4990    0.4535115955196249E-01    0.0000000000000000E+00    0.0000000000000000E+00   -0.3117698680755869E+00    0.2043143989275118E+00    0.0000000000000000E+00    0.0000000000000000E+00    0.0000000000000000E+00    0.0000000000000000E+00    0.0000000000000000E+00
 -0.4512   0.4836    0.4932754274753438E-01    0.0000000000000000E+00    0.0000000000000000E+00   -0.2578398105976621E+00    0.2894609999146367E+00    0.0000000000000000E+00    0.0000000000000000E+00    0.0000000000000000E+00    0.0000000000000000E+00    0.0000000000000000E+00
 -0.4530   0.4665    0.5257659100639051E-01    0.0000000000000000E+00    0.0000000000000000E+00   -0.1995875313312552E+00    0.3455863418542652E+00    0.0000000000000000E+00    0.0000000000000000E+00    0.0000000000000000E+00    0.0000000000000000E+00    0.0000000000000000E+00
 -0.4551   0.4475    0.5480923042546801E-01    0.0000000000000000E+00    0.0000000000000000E+00   -0.1387198959389746E+00    0.3464220035509698E+00    0.0000000000000000E+00    0.0000000000000000E+00    0.0000000000000000E+00    0.0000000000000000E+00    0.0000000000000000E+00
 -0.4573   0.4269    0.5580781846935875E-01    0.0000000000000000E+00    0.0000000000000000E+00   -0.7750332839662798E-01    0.2707684741806402E+00    0.0000000000000000E+00    0.0000000000000000E+00    0.0000000000000000E+00    0.0000000000000000E+00    0.0000000000000000E+00
 -0.4596   0.4046    0.5544115258092611E-01    0.0000000000000000E+00    0.0000000000000000E+00   -0.1872109472574431E-01    0.1059066947514856E+00    0.0000000000000000E+00    0.0000000000000000E+00    0.0000000000000000E+00    0.0000000000000000E+00    0.0000000000000000E+00
 -0.4622   0.3809    0.5367338632088640E-01    0.0000000000000000E+00    0.0000000000000000E+00    0.3461566536325177E-01   -0.1523736081803515E+00    0.0000000000000000E+00    0.0000000000000000E+00    0.0000000000000000E+00    0.0000000000000000E+00    0.0000000000000000E+00
 -0.4649   0.3557    0.5056897197589368E-01    0.0000000000000000E+00    0.0000000000000000E+00    0.7984110865843715E-01   -0.5033148605806674E+00    0.0000000000000000E+00    0.0000000000000000E+00    0.0000000000000000E+00    0.0000000000000000E+00    0.0000000000000000E+00
 -0.4677   0.3293    0.4629090453537135E-01    0.0000000000000000E+00    0.0000000000000000E+00    0.1153391931597016E+00   -0.9459946125772154E+00    0.0000000000000000E+00    0.0000000000000000E+00    0.0000000000000000E+00    0.0000000000000000E+00    0.0000000000000000E+00
 -0.4706   0.3017    0.4108786495203947E-01    0.0000000000000000E+00    0.0000000000000000E+00    0.1410367225844900E+00   -0.1482215673056335E+01    0.0000000000000000E+00    0.0000000000000000E+00    0.0000000000000000E+00    0.0000000000000000E+00    0.0000000000000000E+00
 -0.4737   0.2730    0.3527028962364780E-01    0.0000000000000000E+00    0.0000000000000000E+00    0.1583625030411211E+00   -0.2115709665852039E+01    0.0000000000000000E+00    0.0000000000000000E+00    0.0000000000000000E+00    0.0000000000000000E+00    0.0000000000000000E+00
 -0.4769   0.2433    0.2918512772927499E-01    0.0000000000000000E+00    0.0000000000000000E+00    0.1696541746323594E+00   -0.2848274579896195E+01    0.0000000000000000E+00    0.0000000000000000E+00    0.0000000000000000E+00    0.0000000000000000E+00    0.0000000000000000E+00
 -0.4801   0.2129    0.2319872547754959E-01    0.0000000000000000E+00    0.0000000000000000E+00    0.1773514367704943E+00   -0.3674769985634025E+01    0.0000000000000000E+00    0.0000000000000000E+00    0.0000000000000000E+00    0.0000000000000000E+00    0.0000000000000000E+00
 -0.4834   0.1818    0.1768733684389770E-01    0.0000000000000000E+00    0.0000000000000000E+00    0.1834000694290729E+00   -0.4579179028373218E+01    0.0000000000000000E+00    0.0000000000000000E+00    0.0000000000000000E+00    0.0000000000000000E+00    0.0000000000000000E+00
 -0.4868   0.1501    0.1302540766505647E-01    0.0000000000000000E+00    0.0000000000000000E+00    0.1890597158040779E+00   -0.5533297645889718E+01    0.0000000000000000E+00    0.0000000000000000E+00    0.0000000000000000E+00    0.0000000000000000E+00    0.0000000000000000E+00
 -0.4902   0.1180    0.9563677393458371E-02    0.0000000000000000E+00    0.0000000000000000E+00    0.1950195942084549E+00   -0.6498355674206770E+01    0.0000000000000000E+00    0.0000000000000000E+00    0.0000000000000000E+00    0.0000000000000000E+00    0.0000000000000000E+00
 -0.4937   0.0856    0.7596867489113166E-02    0.0000000000000000E+00    0.0000000000000000E+00    0.2016156998504567E+00   -0.7428545839822514E+01    0.0000000000000000E+00    0.0000000000000000E+00    0.0000000000000000E+00    0.0000000000000000E+00    0.0000000000000000E+00
 -0.4972   0.0531    0.7327395086856896E-02    0.0000000000000000E+00    0.0000000000000000E+00    0.2090079564476292E+00   -0.8274994343399547E+01    0.0000000000000000E+00    0.0000000000000000E+00    0.0000000000000000E+00    0.0000000000000000E+00    0.0000000000000000E+00
 -0.5006   0.0206    0.8832234520836280E-02    0.0000000000000000E+00    0.0000000000000000E+00    0.2172805257769252E+00   -0.8989116113248082E+01    0.0000000000000000E+00    0.0000000000000000E+00    0.0000000000000000E+00    0.0000000000000000E+00    0.0000000000000000E+00
 -0.5041  -0.0118    0.1203790947966438E-01    0.0000000000000000E+00    0.0000000000000000E+00    0.2264850237371524E+00   -0.9525213366828515E+01    0.0000000000000000E+00    0.0000000000000000E+00    0.0000000000000000E+00    0.0000000000000000E+00    0.0000000000000000E+00
 -0.5075  -0.0439    0.1670641044353983E-01    0.0000000000000000E+00    0.0000000000000000E+00    0.2366543214068707E+00   -0.9842905023602743E+01    0.0000000000000000E+00    0.0000000000000000E+00    0.0000000000000000E+00    0.0000000000000000E+00    0.0000000000000000E+00
 -0.5109  -0.0756    0.2243547253486681E-01    0.0000000000000000E+00    0.0000000000000000E+00    0.2478043903637753E+00   -0.9910253683116517E+01    0.0000000000000000E+00    0.0000000000000000E+00    0.0000000000000000E+00    0.0000000000000000E+00    0.0000000000000000E+00
 -0.5142  -0.1067    0.2867832563223893E-01    0.0000000000000000E+00    0.0000000000000000E+00    0.2599321887222771E+00   -0.9708054439049944E+01    0.0000000000000000E+00    0.0000000000000000E+00    0.0000000000000000E+00    0.0000000000000000E+00    0.0000000000000000E+00
 -0.5175  -0.1372    0.3478862150278451E-01    0.0000000000000000E+00    0.0000000000000000E+00    0.2730128067190787E+00   -0.9234896253125711E+01    0.0000000000000000E+00    0.0000000000000000E+00    0.0000000000000000E+00    0.0000000000000000E+00    0.0000000000000000E+00
 -0.5207  -0.1668    0.4009214758043130E-01    0.0000000000000000E+00    0.0000000000000000E+00    0.2869972703284395E+00   -0.8511540146329857E+01    0.0000000000000000E+00    0.0000000000000000E+00    0.0000000000000000E+00    0.0000000000000000E+00    0.0000000000000000E+00
 -0.5237  -0.1955    0.4397803639558913E-01    0.0000000000000000E+00    0.0000000000000000E+00    0.3018116468570113E+00   -0.7582508408778309E+01    0.0000000000000000E+00    0.0000000000000000E+00    0.0000000000000000E+00    0.0000000000000000E+00    0.0000000000000000E+00
 -0.5267  -0.2231    0.4599100112151766E-01    0.0000000000000000E+00    0.0000000000000000E+00    0.3173574665448088E+00   -0.6513010690438497E+01    0.0000000000000000E+00    0.0000000000000000E+00    0.0000000000000000E+00    0.0000000000000000E+00    0.0000000000000000E+00
 -0.5295  -0.2496    0.4589967226364376E-01    0.0000000000000000E+00    0.0000000000000000E+00    0.3335127349831399E+00   -0.5380767152409576E+01    0.0000000000000000E+00    0.0000000000000000E+00    0.0000000000000000E+00    0.0000000000000000E+00    0.0000000000000000E+00
 -0.5322  -0.2747    0.4371998620482868E-01    0.0000000000000000E+00    0.0000000000000000E+00    0.3501321661181249E+00   -0.4264364195673354E+01    0.0000000000000000E+00    0.0000000000000000E+00    0.0000000000000000E+00    0.0000000000000000E+00    0.0000000000000000E+00
 -0.5347  -0.2985    0.3968753124546175E-01    0.0000000000000000E+00    0.0000000000000000E+00    0.3670451886236302E+00   -0.3231461929261892E+01    0.0000000000000000E+00    0.0000000000000000E+00    0.0000000000000000E+00    0.0000000000000000E+00    0.0000000000000000E+00
 -0.5371  -0.3207    0.3419122102456740E-01    0.0000000000000000E+00    0.0000000000000000E+00    0.3840512425290379E+00   -0.2330337088191090E+01    0.0000000000000000E+00    0.0000000000000000E+00    0.0000000000000000E+00    0.0000000000000000E+00    0.0000000000000000E+00
 -0.5393  -0.3414    0.2769265962031692E-01    0.0000000000000000E+00    0.0000000000000000E+00    0.4009139332803695E+00   -0.1586796684806859E+01    0.0000000000000000E+00    0.0000000000000000E+00    0.0000000000000000E+00    0.0000000000000000E+00    0.0000000000000000E+00
 -0.5413  -0.3603    0.2065537008035342E-01    0.0000000000000000E+00    0.0000000000000000E+00    0.4173579469564271E+00   -0.1006278095725935E+01    0.0000000000000000E+00    0.0000000000000000E+00    0.0000000000000000E+00    0.0000000000000000E+00    0.0000000000000000E+00
 -0.5431  -0.3775    0.1349812735678660E-01    0.0000000000000000E+00    0.0000000000000000E+00    0.4330736819636673E+00   -0.5791980948503830E+00    0.0000000000000000E+00    0.0000000000000000E+00    0.0000000000000000E+00    0.0000000000000000E+00    0.0000000000000000E+00
 -0.5448  -0.3928    0.6574354910223905E-02    0.0000000000000000E+00    0.0000000000000000E+00    0.4477328596932288E+00   -0.2870283645446381E+00    0.0000000000000000E+00    0.0000000000000000E+00    0.0000000000000000E+00    0.0000000000000000E+00    0.0000000000000000E+00
 -0.5462  -0.4063    0.1703467251749090E-03    0.0000000000000000E+00    0.0000000000000000E+00    0.4610139244850618E+00   -0.1069844784933928E+00    0.0000000000000000E+00    0.0000000000000000E+00    0.0000000000000000E+00    0.0000000000000000E+00    0.0000000000000000E+00
 -0.5474  -0.4177   -0.5488168789837813E-02    0.0000000000000000E+00    0.0000000000000000E+00    0.4726308566539973E+00   -0.1440298943482129E-01    0.0000000000000000E+00    0.0000000000000000E+00    0.0000000000000000E+00    0.0000000000000000E+00    0.0000000000000000E+00
 -0.5484  -0.4272   -0.1023146342454574E-01    0.0000000000000000E+00    0.0000000000000000E+00    0.4823561966035857E+00    0.1695218970752862E-01    0.0000000000000000E+00    0.0000000000000000E+00    0.0000000000000000E+00    0.0000000000000000E+00    0.0000000000000000E+00
 -0.5492  -0.4345   -0.1394774768248051E-01    0.0000000000000000E+00    0.0000000000000000E+00    0.4900307311727492E+00    0.1445562992267018E-01    0.0000000000000000E+00    0.0000000000000000E+00    0.0000000000000000E+00    0.0000000000000000E+00    0.0000000000000000E+00
 -0.5498  -0.4398   -0.1658960092032037E-01    0.0000000000000000E+00    0.0000000000000000E+00    0.4955579632986044E+00    0.3820917415262699E-02    0.0000000000000000E+00    0.0000000000000000E+00    0.0000000000000000E+00    0.0000000000000000E+00    0.0000000000000000E+00
 -0.5501  -0.4430   -0.1816979594197238E-01    0.0000000000000000E+00    0.0000000000000000E+00    0.4988881072052273E+00   -0.1325642740651526E-03    0.0000000000000000E+00    0.0000000000000000E+00    0.0000000000000000E+00    0.0000000000000000E+00    0.0000000000000000E+00
 -0.5503  -0.4441   -0.1869935178944261E-01    0.0000000000000000E+00    0.0000000000000000E+00    0.5000000000000000E+00    0.0000000000000000E+00    0.0000000000000000E+00    0.0000000000000000E+00    0.0000000000000000E+00    0.0000000000000000E+00    0.0000000000000000E+00
 -0.4430   0.5501    0.2449538141273231E-01    0.0000000000000000E+00    0.0000000000000000E+00   -0.5000000000000000E+00   -0.2327928272491376E-03    0.0000000000000000E+00    0.0000000000000000E+00    0.0000000000000000E+00    0.0000000000000000E+00    0.0000000000000000E+00
 -0.4431   0.5491    0.2502314236459271E-01    0.2842824186619601E-06   -0.2843711800015555E-06   -0.4960330442728088E+00   -0.5402021305164499E-03   -0.1985018005296378E-09    0.5655881448948796E-10    0.5194286569875500E-12    0.5449885334685156E-12   -0.2740648853694072E-11
 -0.4435   0.5459    0.2659097919965382E-01    0.3635132490321804E-05   -0.7069465941686413E-06   -0.4841508305434858E+00   -0.2467321389822554E-02   -0.2085126637490921E-08    0.6019878584333227E-10    0.1007409433650963E-11    0.7868120217857655E-12   -0.1182552710268792E-10
 -0.4441   0.5406    0.2914844541297099E-01    0.5783449714910187E-05    0.2420135822855316E-06   -0.4644190898621288E+00   -0.2971941812082520E-02   -0.3563792261309703E-08    0.6329545980225670E-10    0.1016990311408783E-11    0.7470636522594054E-12   -0.2695777542166544E-10
 -0.4448   0.5332    0.3256962748224276E-01   -0.8219828339294274E-05    0.1716545923102802E-05   -0.4369782181335350E+00    0.1029849442583782E-01    0.3938069466523024E-08    0.6500712728535474E-10    0.9835396386215223E-12    0.8020372560535449E-12   -0.4860069638401576E-10
 -0.4458   0.5238    0.3662571800528704E-01   -0.5094608498075261E-04    0.3016958967857069E-05   -0.4020822076062186E+00    0.4904033127971712E-01    0.2698787453503119E-07    0.6591121138460609E-10    0.1072055638706715E-11    0.7251317601930651E-12   -0.7929096615399978E-10
 -0.4471   0.5123    0.4100948592970491E-01   -0.1236429168333663E-03    0.3663468831804260E-05   -0.3601409646662448E+00    0.1146876546445345E+00    0.6634827602776707E-07    0.6643397290617692E-10    0.1437457791686469E-11    0.7450498551442308E-12   -0.1227529189407051E-09
 -0.4485   0.4989    0.4536942347143926E-01   -0.2148793147875607E-03    0.3513700121539715E-05   -0.3117664761258387E+00    0.1970910409915375E+00    0.1156951185373068E-06    0.6751220762990506E-10    0.2106998603368382E-11    0.7334081258969505E-12   -0.1862285117781859E-09
 -0.4501   0.4835    0.4934430887748090E-01   -0.3029077481227619E-03    0.2565306674703201E-05   -0.2578354250028470E+00    0.2763812142297338E+00    0.1633868315147813E-06    0.7017776811057974E-10    0.2984758273871790E-11    0.7669802293275296E-12   -0.2807368851276415E-09
 -0.4520   0.4663    0.5259456346853101E-01   -0.3601921499706930E-03    0.9791010619812739E-06   -0.1995819180365880E+00    0.3272748231975765E+00    0.1945329653763014E-06    0.7561115687552966E-10    0.3829270234234627E-11    0.7499617246664592E-12   -0.4198781183850642E-09
 -0.4540   0.4474    0.5483013819623527E-01   -0.3589259659987681E-03   -0.1025787172826237E-05   -0.1387128390915971E+00    0.3240695174960840E+00    0.1942524360637727E-06    0.8498045626567641E-10    0.4359859695490798E-11    0.7753060346504803E-12   -0.6170158134422010E-09
 -0.4562   0.4268    0.5583237001884014E-01   -0.2765460211579366E-03   -0.3173774813083378E-05   -0.7749476264650833E-01    0.2458272311978126E+00    0.1503952495941574E-06    0.9961739332736697E-10    0.4344628823371721E-11    0.7650876460152389E-12   -0.8770921072764892E-09
 -0.4586   0.4045    0.5546921427945887E-01   -0.9938418028512289E-04   -0.5242468327187092E-05   -0.1871126390588094E-01    0.7971690076233574E-01    0.5569491249796824E-07    0.1210143044799716E-09    0.3690200922612519E-11    0.7983370908792864E-12   -0.1186122214336116E-08
 -0.4611   0.3808    0.5370456325260403E-01    0.1772378097689168E-03   -0.7099182966363657E-05    0.3462610957895752E-01   -0.1787828644956547E+00   -0.9235685966671066E-07    0.1507314915244473E-09    0.2416081223977073E-11    0.7704878401959547E-12   -0.1503428950777597E-08
 -0.4638   0.3556    0.5060316237589872E-01    0.5526691615923711E-03   -0.8751966883458885E-05    0.7985117974993404E-01   -0.5292241190051502E+00   -0.2933543996497333E-06    0.1895222000170005E-09    0.5603989494673556E-12    0.7530503998154359E-12   -0.1763762469408903E-08
 -0.4666   0.3292    0.4632863769478828E-01    0.1025957492673637E-02   -0.1028473018855098E-04    0.1153478545175947E+00   -0.9707438120531797E+00   -0.5468063017225709E-06    0.2365211880517304E-09   -0.1904663926577399E-11    0.6985176326246290E-12   -0.1895416067154709E-08
 -0.4696   0.3016    0.4113012091421479E-01    0.1598890423488936E-02   -0.1179491951686925E-04    0.1410432617485395E+00   -0.1504884111700462E+01   -0.8536737519460915E-06    0.2887058127287734E-09   -0.5089852150863550E-11    0.6322095624788915E-12   -0.1849180218671531E-08
 -0.4726   0.2729    0.3531803649627580E-01    0.2275162479392774E-02   -0.1330764274722545E-04    0.1583667644734751E+00   -0.2134810053475593E+01   -0.1216005416970401E-05    0.3415161625719421E-09   -0.9169560943877997E-11    0.5623418397604496E-12   -0.1619933878010960E-08
 -0.4758   0.2432    0.2923873459317759E-01    0.3056297989782333E-02   -0.1476108591165378E-04    0.1696565072256889E+00   -0.2861574020296052E+01   -0.1634673502836317E-05    0.3897336377234328E-09   -0.1432966245662470E-10    0.4775069228912798E-12   -0.1248518470900462E-08
 -0.4790   0.2128    0.2325757570367790E-01    0.3936382409035536E-02   -0.1600686465939291E-04    0.1773524293980043E+00   -0.3679263148482830E+01   -0.2106598001779325E-05    0.4284674386123566E-09   -0.2066976104164731E-10    0.3909234047583254E-12   -0.8002172154075726E-09
 -0.4824   0.1816    0.1774967245426836E-01    0.4897950390686669E-02   -0.1686240863128387E-04    0.1834002773110291E+00   -0.4571267176285282E+01   -0.2622476772097534E-05    0.4533124500771812E-09   -0.2810676344444651E-10    0.2771394225220547E-12   -0.3398998968569267E-09
 -0.4858   0.1500    0.1308848398833037E-01    0.5910677832636493E-02   -0.1715204733549656E-04    0.1890595208522407E+00   -0.5509136930139908E+01   -0.3166109972352243E-05    0.4604902362204122E-09   -0.3629838790653039E-10    0.1694755447090301E-12    0.8689913936002491E-10
 -0.4892   0.1179    0.9624045478459050E-02    0.6933170942584029E-02   -0.1675157066354029E-04    0.1950192021207029E+00   -0.6454311532736474E+01   -0.3715314581717504E-05    0.4469227141146170E-09   -0.4468372893917660E-10    0.4195255254302310E-13    0.4557727121060062E-09
 -0.4926   0.0855    0.7650720695338329E-02    0.7916751958406531E-02   -0.1559192269764014E-04    0.2016151993360847E+00   -0.7361657798998174E+01   -0.4243975333656596E-05    0.4104841466734399E-09   -0.5259023772019589E-10   -0.3549938121238938E-13    0.7590995462422589E-09
 -0.4961   0.0530    0.7370809007160504E-02    0.8809681363966914E-02   -0.1365505382720419E-04    0.2090073773552971E+00   -0.8183389150228880E+01   -0.4724290900167271E-05    0.3504159566680709E-09   -0.5938377567460407E-10   -0.1300418106531254E-12    0.9984313237287878E-09
 -0.4996   0.0204    0.8861344467325524E-02    0.9560709445770638E-02   -0.1095134232877680E-04    0.2172798743883424E+00   -0.8872345869680499E+01   -0.5128694200730966E-05    0.2676043657501292E-09   -0.6454581313874996E-10   -0.1633138069223605E-12    0.1178477367774766E-08
 -0.5030  -0.0119    0.1204900255614046E-01    0.1012181615522180E-01   -0.7514611963097045E-05    0.2264842990751213E+00   -0.9384512793608211E+01   -0.5431321147571000E-05    0.1646087328943668E-09   -0.6774958372091078E-10   -0.2092076512028029E-12    0.1305571169403497E-08
 -0.5065  -0.0440    0.1669608276178442E-01    0.1045076792954844E-01   -0.3405094238822717E-05    0.2366535215812812E+00   -0.9681371364142777E+01   -0.5609385743430694E-05    0.4553744967911166E-10   -0.6877698410789890E-10   -0.1559568446607429E-12    0.1385720965925430E-08
 -0.5098  -0.0757    0.2240086401675129E-01    0.1051439786827034E-01    0.1264825374939902E-05    0.2478035148302658E+00   -0.9732894125695241E+01   -0.5644956126057615E-05   -0.8424293077360923E-10   -0.6765998872282353E-10   -0.1061728829854225E-12    0.1424104853139929E-08
 -0.5132  -0.1068    0.2861753084015720E-01    0.1029308746774038E-01    0.6303955422153307E-05    0.2599312389279100E+00   -0.9521637790886231E+01   -0.5527357736832101E-05   -0.2186188053504567E-09   -0.6450268097424328E-10   -0.3370914658518132E-13    0.1426233072615579E-08
 -0.5164  -0.1373    0.3470116008183303E-01    0.9786025194235975E-02    0.1142136466923547E-04    0.2730117858583182E+00   -0.9047494544090410E+01   -0.5256039420807363E-05   -0.3512352110546235E-09   -0.5953282311565999E-10    0.5918182610642475E-13    0.1396281002277733E-08
 -0.5196  -0.1669    0.3997942761138206E-01    0.9015713187793555E-02    0.1623581160594688E-04    0.2869961823596079E+00   -0.8331747137526927E+01   -0.4842986853830799E-05   -0.4760905454592734E-09   -0.5312739137508515E-10    0.1838251773023103E-12    0.1339282830470356E-08
 -0.5226  -0.1956    0.4384354914742236E-01    0.8029527919467186E-02    0.2032274836545735E-04    0.3018104949681732E+00   -0.7418378101405127E+01   -0.4313622792139615E-05   -0.5882233033993600E-09   -0.4577471734990013E-10    0.2742667204458371E-12    0.1260115364484782E-08
 -0.5256  -0.2233    0.4584015628162189E-01    0.6896405444183147E-02    0.2329472925195118E-04    0.3173562515772220E+00   -0.6370970959709437E+01   -0.3704987191715296E-05   -0.6843411046175696E-09   -0.3804090376036129E-10    0.3742006704499090E-12    0.1163512560603541E-08
 -0.5284  -0.2497    0.4573915122571048E-01    0.5698223041184666E-02    0.2489324099903507E-04    0.3335114547106821E+00   -0.5264761984810519E+01   -0.3061160971449531E-05   -0.7630149428949906E-09   -0.3047401220257484E-10    0.4334171910258533E-12    0.1055129372762309E-08
 -0.5311  -0.2748    0.4355682620363615E-01    0.4517605156937400E-02    0.2504983104876099E-04    0.3501308164626202E+00   -0.4175532044970149E+01   -0.2426616482712461E-05   -0.8247667410143933E-09   -0.2356889683419183E-10    0.5378336664918493E-12    0.9388098180795890E-09
 -0.5336  -0.2986    0.3952812111046414E-01    0.3425613356971658E-02    0.2389900688600912E-04    0.3670437675821523E+00   -0.3168367817628247E+01   -0.1839661579534526E-05   -0.8714507171436736E-09   -0.1765623758309687E-10    0.5843936445870668E-12    0.8198191465969007E-09
 -0.5360  -0.3208    0.3404058977050959E-01    0.2472935631946185E-02    0.2172318225414983E-04    0.3840497566063061E+00   -0.2289699510063446E+01   -0.1327573031894529E-05   -0.9057131988843281E-09   -0.1287919770831536E-10    0.6039196920326617E-12    0.7022580971599579E-09
 -0.5382  -0.3415    0.2755413349295240E-01    0.1686680911590858E-02    0.1887413034580680E-04    0.4009124047225849E+00   -0.1564350425918647E+01   -0.9049923580221597E-06   -0.9302907541530736E-09   -0.9198385109154827E-11    0.6235983951441426E-12    0.5889143790682727E-09
 -0.5402  -0.3604    0.2053071522586489E-01    0.1072575726771588E-02    0.1567598187524259E-04    0.4173564186947913E+00   -0.9975998328849989E+00   -0.5749548368022466E-06   -0.9475635415201467E-09   -0.6469810798215292E-11    0.6273592756400603E-12    0.4823327778846753E-09
 -0.5421  -0.3776    0.1338791660998488E-01    0.6205471344874409E-03    0.1237915230060386E-04    0.4330722168586515E+00   -0.5801912409894342E+00   -0.3320931160973976E-06   -0.9594648547883722E-09   -0.4494228123333444E-11    0.6278241815316221E-12    0.3848454055432882E-09
 -0.5437  -0.3929    0.6478474163687090E-02    0.3110504695869543E-03    0.9128418785997110E-05    0.4477315320931139E+00   -0.2941691520484657E+00   -0.1658228251130016E-06   -0.9673910492113968E-09   -0.3087783501110053E-11    0.6158892840169017E-12    0.2968356636878777E-09
 -0.5451  -0.4064    0.8825409905463891E-04    0.1199574691947404E-03    0.6019703447337484E-05    0.4610128050506289E+00   -0.1172041235009356E+00   -0.6327145376177723E-07   -0.9724982711484254E-09   -0.2112997277148310E-11    0.6350753256612052E-12    0.2193307801004463E-09
 -0.5464  -0.4178   -0.5557488501182025E-02    0.2102421585420457E-04    0.3144372877338908E-05    0.4726299946824492E+00   -0.2498022950193021E-01   -0.1024806549138824E-07   -0.9756729755713844E-09   -0.1475940897277539E-11    0.6231595101047205E-12    0.1527860442329665E-09
 -0.5474  -0.4273   -0.1029009802350716E-01   -0.1368608291813987E-04    0.7489935350085167E-06    0.4823556061774835E+00    0.8544960860786759E-02    0.8077996445405588E-08   -0.9778518934248220E-09   -0.1114608405572426E-11    0.6603164195984057E-12    0.9822778571436097E-10
 -0.5482  -0.4347   -0.1399985943466197E-01   -0.1319523012340824E-04   -0.8035374277755878E-06    0.4900303869925915E+00    0.1008991088823712E-01    0.7513284084034071E-08   -0.9797473967104037E-09   -0.9461442046498902E-12    0.6247741039799859E-12    0.5543262593735165E-10
 -0.5487  -0.4400   -0.1664198473609802E-01   -0.3913350234184749E-05   -0.1049720488694496E-05    0.4955578083969105E+00    0.3593654251952242E-02    0.2075358403912628E-08   -0.9823567315506154E-09   -0.8471073235233328E-12    0.6657495735251651E-12    0.2460562352826767E-10
 -0.5491  -0.4431   -0.1822446153929692E-01   -0.1045395094048520E-06   -0.1048219184369246E-06    0.4988880683886938E+00    0.5185818863244010E-03    0.9120624142214186E-10   -0.9853583161001031E-09   -0.4371660368776564E-12    0.4644626697136722E-12    0.5967198306658372E-11
 -0.5492  -0.4442   -0.1875408130305307E-01    0.0000000000000000E+00    0.0000000000000000E+00    0.5000000000000000E+00   -0.1319819726635648E-03    0.0000000000000000E+00    0.0000000000000000E+00    0.0000000000000000E+00    0.0000000000000000E+00    0.0000000000000000E+00
 -0.4398   0.5498    0.2465935083625245E-01    0.0000000000000000E+00    0.0000000000000000E+00   -0.5000000000000000E+00   -0.4358719672733279E-02    0.0000000000000000E+00    0.0000000000000000E+00    0.0000000000000000E+00    0.0000000000000000E+00    0.0000000000000000E+00
 -0.4400   0.5487    0.2518703426717341E-01    0.7067649751256329E-06   -0.3635132660718079E-05   -0.4960317962171334E+00   -0.2467128545435358E-02   -0.2085156557480826E-08    0.6008728584139256E-10    0.7883374942424526E-12    0.1053902299631704E-11   -0.2996913806528612E-11
 -0.4403   0.5455    0.2675284465178521E-01    0.5288563046358533E-05   -0.5289065147889514E-05   -0.4841458587750843E+00    0.2032176303766047E-02   -0.1936125985237881E-07    0.6146654929831130E-10    0.2340392419794557E-11    0.2516898581911287E-11   -0.1166834120644444E-10
 -0.4409   0.5402    0.2929794509145031E-01    0.1702820830406330E-06    0.6300229745753929E-05   -0.4644080595080575E+00    0.8471082975366985E-02   -0.2070166000770680E-07    0.6354300592648077E-10    0.3255343043739867E-11    0.3000149174231526E-11   -0.2653018082998670E-10
 -0.4417   0.5329    0.3269482285439965E-01   -0.5934446447696670E-04    0.2664915626856973E-04   -0.4369591573124568E+00    0.2318822068314887E-01    0.1032608791026017E-06    0.6518022926949030E-10    0.3643141344156220E-11    0.3028968569018797E-11   -0.4853931839798875E-10
 -0.4427   0.5234    0.3672392029945339E-01   -0.2175130800386557E-03    0.4528412266604775E-04   -0.4020535651362228E+00    0.5564317044164185E-01    0.4529398239179405E-06    0.6613732825289098E-10    0.4314901734525645E-11    0.2902103904411923E-11   -0.7906890073239303E-10
 -0.4439   0.5120    0.4108521953259409E-01   -0.4819570861778735E-03    0.5491892622607468E-04   -0.3601012980659452E+00    0.1087416420853009E+00    0.1042794648934443E-05    0.6682206177277550E-10    0.5892451457323311E-11    0.2756706321549451E-11   -0.1226401757925544E-09
 -0.4453   0.4985    0.4543088651723345E-01   -0.8124803746765256E-03    0.5247047685042731E-04   -0.3117139261408186E+00    0.1749404759060952E+00    0.1781573564855941E-05    0.6800077861912612E-10    0.8575549992340115E-11    0.2651124111907599E-11   -0.1861549560333575E-09
 -0.4470   0.4832    0.4940032439509225E-01   -0.1128207763231817E-02    0.3788989272232495E-04   -0.2577673639816144E+00    0.2372095290474214E+00    0.2490800850171157E-05    0.7070638866069068E-10    0.1201759872171415E-10    0.2653649869288621E-11   -0.2804272369871796E-09