 title="result"
 variables="x","y","P","u","v","t","omega","psi","RES1","RES2","RES3","RES4"
zone,j= 49,i= 49,f=point
 -0.3586   0.6095    0.2532762778464197E-01    0.0000000000000000E+00    0.0000000000000000E+00   -0.5000000000000000E+00    0.0000000000000000E+00    0.0000000000000000E+00    0.0000000000000000E+00    0.0000000000000000E+00    0.0000000000000000E+00    0.0000000000000000E+00
 -0.3588   0.6084    0.2584222749068833E-01    0.0000000000000000E+00    0.0000000000000000E+00   -0.4955888308220349E+00    0.1695961057695293E-04    0.0000000000000000E+00    0.0000000000000000E+00    0.0000000000000000E+00    0.0000000000000000E+00    0.0000000000000000E+00
 -0.3596   0.6053    0.2735500183239667E-01    0.0000000000000000E+00    0.0000000000000000E+00   -0.4823763977379590E+00   -0.4225814021264732E-02    0.0000000000000000E+00    0.0000000000000000E+00    0.0000000000000000E+00    0.0000000000000000E+00    0.0000000000000000E+00
 -0.3610   0.6002    0.2980175308708847E-01    0.0000000000000000E+00    0.0000000000000000E+00   -0.4604390351036234E+00   -0.2006289006429956E-01    0.0000000000000000E+00    0.0000000000000000E+00    0.0000000000000000E+00    0.0000000000000000E+00    0.0000000000000000E+00
 -0.3628   0.5930    0.3308169622170040E-01    0.0000000000000000E+00    0.0000000000000000E+00   -0.4299480963926027E+00   -0.4616139476230075E-01    0.0000000000000000E+00    0.0000000000000000E+00    0.0000000000000000E+00    0.0000000000000000E+00    0.0000000000000000E+00
 -0.3652   0.5838    0.3701751197559335E-01    0.0000000000000000E+00    0.0000000000000000E+00   -0.3912362870056065E+00   -0.7486009613584545E-01    0.0000000000000000E+00    0.0000000000000000E+00    0.0000000000000000E+00    0.0000000000000000E+00    0.0000000000000000E+00
 -0.3681   0.5726    0.4135297706185968E-01    0.0000000000000000E+00    0.0000000000000000E+00   -0.3448865568429517E+00   -0.9835844176395679E-01    0.0000000000000000E+00    0.0000000000000000E+00    0.0000000000000000E+00    0.0000000000000000E+00    0.0000000000000000E+00
 -0.3715   0.5595    0.4576587942184784E-01    0.0000000000000000E+00    0.0000000000000000E+00   -0.2918333203175581E+00   -0.1118296182568393E+00    0.0000000000000000E+00    0.0000000000000000E+00    0.0000000000000000E+00    0.0000000000000000E+00    0.0000000000000000E+00
 -0.3754   0.5446    0.4988897790663242E-01    0.0000000000000000E+00    0.0000000000000000E+00   -0.2334579185973265E+00   -0.1156267871529923E+00    0.0000000000000000E+00    0.0000000000000000E+00    0.0000000000000000E+00    0.0000000000000000E+00    0.0000000000000000E+00
 -0.3797   0.5279    0.5334115096125416E-01    0.0000000000000000E+00    0.0000000000000000E+00   -0.1716501629059304E+00   -0.1170451947366329E+00    0.0000000000000000E+00    0.0000000000000000E+00    0.0000000000000000E+00    0.0000000000000000E+00    0.0000000000000000E+00
 -0.3845   0.5094    0.5576934663522919E-01    0.0000000000000000E+00    0.0000000000000000E+00   -0.1087984485021744E+00   -0.1314393884999526E+00    0.0000000000000000E+00    0.0000000000000000E+00    0.0000000000000000E+00    0.0000000000000000E+00    0.0000000000000000E+00
 -0.3897   0.4893    0.5689769986873705E-01    0.0000000000000000E+00    0.0000000000000000E+00   -0.4766840011463236E-01   -0.1809329922559324E+00    0.0000000000000000E+00    0.0000000000000000E+00    0.0000000000000000E+00    0.0000000000000000E+00    0.0000000000000000E+00
 -0.3953   0.4677    0.5656978073108131E-01    0.0000000000000000E+00    0.0000000000000000E+00    0.8860051738420536E-02   -0.2898720913346136E+00    0.0000000000000000E+00    0.0000000000000000E+00    0.0000000000000000E+00    0.0000000000000000E+00    0.0000000000000000E+00
 -0.4013   0.4446    0.5476777144493453E-01    0.0000000000000000E+00    0.0000000000000000E+00    0.5819714992255402E-01   -0.4788081572773880E+00    0.0000000000000000E+00    0.0000000000000000E+00    0.0000000000000000E+00    0.0000000000000000E+00    0.0000000000000000E+00
 -0.4076   0.4201    0.5160174198720377E-01    0.0000000000000000E+00    0.0000000000000000E+00    0.9852702909635251E-01   -0.7608903905981831E+00    0.0000000000000000E+00    0.0000000000000000E+00    0.0000000000000000E+00    0.0000000000000000E+00    0.0000000000000000E+00
 -0.4143   0.3944    0.4727872555270443E-01    0.0000000000000000E+00    0.0000000000000000E+00    0.1292201435599350E+00   -0.1142835557645823E+01    0.0000000000000000E+00    0.0000000000000000E+00    0.0000000000000000E+00    0.0000000000000000E+00    0.0000000000000000E+00
 -0.4213   0.3675    0.4206840143566661E-01    0.0000000000000000E+00    0.0000000000000000E+00    0.1509721111029083E+00   -0.1628418280009627E+01    0.0000000000000000E+00    0.0000000000000000E+00    0.0000000000000000E+00    0.0000000000000000E+00    0.0000000000000000E+00
 -0.4285   0.3395    0.3627705903577354E-01    0.0000000000000000E+00    0.0000000000000000E+00    0.1655440734887220E+00   -0.2220361041843613E+01    0.0000000000000000E+00    0.0000000000000000E+00    0.0000000000000000E+00    0.0000000000000000E+00    0.0000000000000000E+00
 -0.4360   0.3107    0.3023255461221502E-01    0.0000000000000000E+00    0.0000000000000000E+00    0.1751886540187307E+00   -0.2918717350808785E+01    0.0000000000000000E+00    0.0000000000000000E+00    0.0000000000000000E+00    0.0000000000000000E+00    0.0000000000000000E+00
 -0.4437   0.2810    0.2427805074101975E-01    0.0000000000000000E+00    0.0000000000000000E+00    0.1820331619065846E+00   -0.3717179044831845E+01    0.0000000000000000E+00    0.0000000000000000E+00    0.0000000000000000E+00    0.0000000000000000E+00    0.0000000000000000E+00
 -0.4515   0.2507    0.1876871056103064E-01    0.0000000000000000E+00    0.0000000000000000E+00    0.1876886100568940E+00   -0.4599901800390857E+01    0.0000000000000000E+00    0.0000000000000000E+00    0.0000000000000000E+00    0.0000000000000000E+00    0.0000000000000000E+00
 -0.4595   0.2199    0.1406348407307345E-01    0.0000000000000000E+00    0.0000000000000000E+00    0.1931704240004539E+00   -0.5540509581116573E+01    0.0000000000000000E+00    0.0000000000000000E+00    0.0000000000000000E+00    0.0000000000000000E+00    0.0000000000000000E+00
 -0.4676   0.1886    0.1050644580012142E-01    0.0000000000000000E+00    0.0000000000000000E+00    0.1990295754052704E+00   -0.6503484452840091E+01    0.0000000000000000E+00    0.0000000000000000E+00    0.0000000000000000E+00    0.0000000000000000E+00    0.0000000000000000E+00
 -0.4758   0.1571    0.8398487061531793E-02    0.0000000000000000E+00    0.0000000000000000E+00    0.2055377935938657E+00   -0.7447075832536407E+01    0.0000000000000000E+00    0.0000000000000000E+00    0.0000000000000000E+00    0.0000000000000000E+00    0.0000000000000000E+00
 -0.4840   0.1255    0.7964917291572952E-02    0.0000000000000000E+00    0.0000000000000000E+00    0.2128293674751974E+00   -0.8326477389968352E+01    0.0000000000000000E+00    0.0000000000000000E+00    0.0000000000000000E+00    0.0000000000000000E+00    0.0000000000000000E+00
 -0.4922   0.0938    0.9324966746493810E-02    0.0000000000000000E+00    0.0000000000000000E+00    0.2209793152660039E+00   -0.9096344512364627E+01    0.0000000000000000E+00    0.0000000000000000E+00    0.0000000000000000E+00    0.0000000000000000E+00    0.0000000000000000E+00
 -0.5004   0.0623    0.1246659947989622E-01    0.0000000000000000E+00    0.0000000000000000E+00    0.2300364606040122E+00   -0.9712481208354454E+01    0.0000000000000000E+00    0.0000000000000000E+00    0.0000000000000000E+00    0.0000000000000000E+00    0.0000000000000000E+00
 -0.5085   0.0310    0.1722809870396941E-01    0.0000000000000000E+00    0.0000000000000000E+00    0.2400335826107918E+00   -0.1013328412757556E+02    0.0000000000000000E+00    0.0000000000000000E+00    0.0000000000000000E+00    0.0000000000000000E+00    0.0000000000000000E+00
 -0.5165   0.0002    0.2328850647870792E-01    0.0000000000000000E+00    0.0000000000000000E+00    0.2509881763864217E+00   -0.1032191646280656E+02    0.0000000000000000E+00    0.0000000000000000E+00    0.0000000000000000E+00    0.0000000000000000E+00    0.0000000000000000E+00
 -0.5243  -0.0301    0.3017190444916481E-01    0.0000000000000000E+00    0.0000000000000000E+00    0.2628999658341978E+00   -0.1025002168263561E+02    0.0000000000000000E+00    0.0000000000000000E+00    0.0000000000000000E+00    0.0000000000000000E+00    0.0000000000000000E+00
 -0.5320  -0.0598    0.3727317283356215E-01    0.0000000000000000E+00    0.0000000000000000E+00    0.2757476917341870E+00   -0.9903061927249059E+01    0.0000000000000000E+00    0.0000000000000000E+00    0.0000000000000000E+00    0.0000000000000000E+00    0.0000000000000000E+00
 -0.5395  -0.0886    0.4391197527794360E-01    0.0000000000000000E+00    0.0000000000000000E+00    0.2894863926234033E+00   -0.9286270675788552E+01    0.0000000000000000E+00    0.0000000000000000E+00    0.0000000000000000E+00    0.0000000000000000E+00    0.0000000000000000E+00
 -0.5467  -0.1165    0.4941490246151552E-01    0.0000000000000000E+00    0.0000000000000000E+00    0.3040459011130186E+00   -0.8429130623030600E+01    0.0000000000000000E+00    0.0000000000000000E+00    0.0000000000000000E+00    0.0000000000000000E+00    0.0000000000000000E+00
 -0.5537  -0.1434    0.5321368367073891E-01    0.0000000000000000E+00    0.0000000000000000E+00    0.3193308178626724E+00   -0.7385876522989717E+01    0.0000000000000000E+00    0.0000000000000000E+00    0.0000000000000000E+00    0.0000000000000000E+00    0.0000000000000000E+00
 -0.5604  -0.1692    0.5493557523588129E-01    0.0000000000000000E+00    0.0000000000000000E+00    0.3352215558498469E+00   -0.6230322960095593E+01    0.0000000000000000E+00    0.0000000000000000E+00    0.0000000000000000E+00    0.0000000000000000E+00    0.0000000000000000E+00
 -0.5667  -0.1937    0.5445835652646780E-01    0.0000000000000000E+00    0.0000000000000000E+00    0.3515752949016762E+00   -0.5045374593841302E+01    0.0000000000000000E+00    0.0000000000000000E+00    0.0000000000000000E+00    0.0000000000000000E+00    0.0000000000000000E+00
 -0.5727  -0.2168    0.5191206572837149E-01    0.0000000000000000E+00    0.0000000000000000E+00    0.3682252751295029E+00   -0.3909936005419503E+01    0.0000000000000000E+00    0.0000000000000000E+00    0.0000000000000000E+00    0.0000000000000000E+00    0.0000000000000000E+00
 -0.5783  -0.2384    0.4762915361625294E-01    0.0000000000000000E+00    0.0000000000000000E+00    0.3849773502127811E+00   -0.2887268037255145E+01    0.0000000000000000E+00    0.0000000000000000E+00    0.0000000000000000E+00    0.0000000000000000E+00    0.0000000000000000E+00
 -0.5835  -0.2585    0.4206360818880688E-01    0.0000000000000000E+00    0.0000000000000000E+00    0.4016044415131031E+00   -0.2018166725172858E+01    0.0000000000000000E+00    0.0000000000000000E+00    0.0000000000000000E+00    0.0000000000000000E+00    0.0000000000000000E+00
 -0.5883  -0.2770    0.3570718104916398E-01    0.0000000000000000E+00    0.0000000000000000E+00    0.4178420563401063E+00   -0.1320198083025965E+01    0.0000000000000000E+00    0.0000000000000000E+00    0.0000000000000000E+00    0.0000000000000000E+00    0.0000000000000000E+00
 -0.5927  -0.2937    0.2902516274703615E-01    0.0000000000000000E+00    0.0000000000000000E+00    0.4333899393841639E+00   -0.7917475359260302E+00    0.0000000000000000E+00    0.0000000000000000E+00    0.0000000000000000E+00    0.0000000000000000E+00    0.0000000000000000E+00
 -0.5965  -0.3086    0.2242083423556835E-01    0.0000000000000000E+00    0.0000000000000000E+00    0.4479243665919470E+00   -0.4182933639343761E+00    0.0000000000000000E+00    0.0000000000000000E+00    0.0000000000000000E+00    0.0000000000000000E+00    0.0000000000000000E+00
 -0.5999  -0.3217    0.1622512488383815E-01    0.0000000000000000E+00    0.0000000000000000E+00    0.4611217062388470E+00   -0.1780775339341901E+00    0.0000000000000000E+00    0.0000000000000000E+00    0.0000000000000000E+00    0.0000000000000000E+00    0.0000000000000000E+00
 -0.6028  -0.3329    0.1070045727966720E-01    0.0000000000000000E+00    0.0000000000000000E+00    0.4726880581920943E+00   -0.4550920904890683E-01    0.0000000000000000E+00    0.0000000000000000E+00    0.0000000000000000E+00    0.0000000000000000E+00    0.0000000000000000E+00
 -0.6052  -0.3421    0.6045998236748461E-02    0.0000000000000000E+00    0.0000000000000000E+00    0.4823854011979034E+00    0.8113102809556644E-02    0.0000000000000000E+00    0.0000000000000000E+00    0.0000000000000000E+00    0.0000000000000000E+00    0.0000000000000000E+00
 -0.6070  -0.3493    0.2395533545383997E-02    0.0000000000000000E+00    0.0000000000000000E+00    0.4900449465115147E+00    0.1428023894047205E-01    0.0000000000000000E+00    0.0000000000000000E+00    0.0000000000000000E+00    0.0000000000000000E+00    0.0000000000000000E+00
 -0.6084  -0.3544   -0.1915155161758611E-03    0.0000000000000000E+00    0.0000000000000000E+00    0.4955638961735125E+00    0.4593301083395875E-02    0.0000000000000000E+00    0.0000000000000000E+00    0.0000000000000000E+00    0.0000000000000000E+00    0.0000000000000000E+00
 -0.6092  -0.3575   -0.1731598998492181E-02    0.0000000000000000E+00    0.0000000000000000E+00    0.4988895685942730E+00   -0.9578830926913088E-04    0.0000000000000000E+00    0.0000000000000000E+00    0.0000000000000000E+00    0.0000000000000000E+00    0.0000000000000000E+00
 -0.6095  -0.3586   -0.2246439821300183E-02    0.0000000000000000E+00    0.0000000000000000E+00    0.5000000000000000E+00    0.0000000000000000E+00    0.0000000000000000E+00    0.0000000000000000E+00    0.0000000000000000E+00    0.0000000000000000E+00    0.0000000000000000E+00
 -0.3575   0.6092    0.2546318814321328E-01    0.0000000000000000E+00    0.0000000000000000E+00   -0.5000000000000000E+00    0.1681688329324023E-04    0.0000000000000000E+00    0.0000000000000000E+00    0.0000000000000000E+00    0.0000000000000000E+00    0.0000000000000000E+00
 -0.3578   0.6082    0.2597719690098634E-01    0.1665969232094991E-06   -0.1666703612748390E-06   -0.4955887214323041E+00   -0.5600853392311216E-03   -0.1097268525310628E-09    0.3353241772793836E-10   -0.6596696387924095E-12   -0.6551014071487504E-12    0.6441752404932888E-11
 -0.3586   0.6051    0.2748989990338668E-01    0.4566810692864013E-05   -0.1231258325154281E-05   -0.4823759578059281E+00   -0.4507925415796936E-02   -0.2404980115660164E-08    0.2902279154851084E-10   -0.1226656580130547E-11   -0.9746578544245210E-12    0.2544953007013739E-10
 -0.3599   0.5999    0.2993448598778694E-01    0.2016265309687905E-04   -0.1885925731729518E-05   -0.4604380320793528E+00   -0.1766414035453651E-01   -0.1105753251886785E-07    0.2500220516732377E-10   -0.1209297419146882E-11   -0.9210687768046455E-12    0.5764886137904490E-10
 -0.3618   0.5927    0.3320643174596756E-01    0.4647818126400259E-04   -0.1881623306964524E-05   -0.4299462845981555E+00   -0.4074489394104368E-01   -0.2537472351221245E-07    0.2254481367217065E-10   -0.1039772434818786E-11   -0.9839282166801411E-12    0.1034050362697103E-09
 -0.3642   0.5835    0.3712978673115289E-01    0.7614217971759839E-04   -0.1464001636166207E-05   -0.3912334196918762E+00   -0.6743802671644515E-01   -0.4147270320894382E-07    0.2105952651848542E-10   -0.9105702303280339E-12   -0.9443791235130838E-12    0.1641492393400501E-09
 -0.3671   0.5723    0.4144995953442263E-01    0.1010711071554167E-03   -0.8705425242488539E-06   -0.3448824041436732E+00   -0.9052415880073712E-01   -0.5483424860086406E-07    0.2021478015361289E-10   -0.1021051299066045E-11   -0.9300121436850439E-12    0.2437265979315928E-09
 -0.3705   0.5593    0.4584606393789038E-01    0.1161944401789350E-03   -0.3489407369484989E-06   -0.2918276948485000E+00   -0.1053030553169512E+00   -0.6282272424266641E-07    0.1902191251734742E-10   -0.1474454239258627E-11   -0.9034188327983195E-12    0.3479979776566111E-09
 -0.3743   0.5443    0.4995213517709018E-01    0.1218446557065323E-03   -0.6796181711752026E-07   -0.2334507124040115E+00   -0.1120719432440309E+00   -0.6555260556857120E-07    0.1638342041784639E-10   -0.2263573009586572E-11   -0.9048315482290681E-12    0.4851208323941592E-09
 -0.3787   0.5276    0.5338836743287329E-01    0.1256700234618975E-03   -0.1991615867422445E-06   -0.1716413938366440E+00   -0.1178008289679160E+00   -0.6720107474726508E-07    0.1085020983650209E-10   -0.3263990640267611E-11   -0.8754891343137894E-12    0.6651734094087480E-09
 -0.3834   0.5092    0.5580291866944661E-01    0.1438004067268230E-03   -0.8511779469467353E-06   -0.1087883075525336E+00   -0.1372841516689778E+00   -0.7641413913003077E-07    0.9315694916856021E-12   -0.4302794232025065E-11   -0.9278949136826142E-12    0.8952416585827905E-09
 -0.3886   0.4891    0.5692073953408569E-01    0.1995107310471409E-03   -0.2042811367555927E-05   -0.4765728806465227E-01   -0.1918667918474261E+00   -0.1057561436217114E-06   -0.1517061216232962E-10   -0.5224216892418809E-11   -0.9060564798435422E-12    0.1173656644093413E-08
 -0.3943   0.4674    0.5658557638317806E-01    0.3184708150372189E-03   -0.3648641853427825E-05    0.8871515095771653E-02   -0.3051680281499839E+00   -0.1690110437388427E-06   -0.3925767176615746E-10   -0.5905907707326463E-11   -0.9249614962847374E-12    0.1481193973029704E-08
 -0.4003   0.4443    0.5477931089090495E-01    0.5224376207530005E-03   -0.5468947658699384E-05    0.5820817240173321E-01   -0.4972765424975007E+00   -0.2778889700990069E-06   -0.7291555033372976E-10   -0.6283140674412380E-11   -0.8689680919271581E-12    0.1777123240231937E-08
 -0.4066   0.4198    0.5161160556290493E-01    0.8254212748653592E-03   -0.7319976897010835E-05    0.9853677864547072E-01   -0.7812249969923382E+00   -0.4398849523203579E-06   -0.1167946156455102E-09   -0.6267986130126246E-11   -0.8278655538873636E-12    0.2003697804897620E-08
 -0.4133   0.3941    0.4728926350171855E-01    0.1234619285650591E-02   -0.9123306656934553E-05    0.1292279560709481E+00   -0.1163741041831505E+01   -0.6588631680201891E-06   -0.1700439199170400E-09   -0.5734017427538873E-11   -0.8031283971199343E-12    0.2102217115662608E-08
 -0.4202   0.3672    0.4208176120263198E-01    0.1754007306351915E-02   -0.1087513123204493E-04    0.1509776874176979E+00   -0.1648481791913897E+01   -0.9369538391205115E-06   -0.2300877717520411E-09   -0.4474802473009021E-11   -0.7193828865936780E-12    0.2034708124210027E-08
 -0.4275   0.3393    0.3629492384412165E-01    0.2386291913297235E-02   -0.1257938216869229E-04    0.1655475457631400E+00   -0.2237778585891430E+01   -0.1275649580363295E-05   -0.2930616062324365E-09   -0.2237161844664826E-11   -0.6517564266061981E-12    0.1800829950437954E-08
 -0.4350   0.3104    0.3025571364639436E-01    0.3131210498592413E-02   -0.1417715263938175E-04    0.1751904730025267E+00   -0.2931087925500384E+01   -0.1674862201714134E-05   -0.3545761531609237E-09    0.1279792244401889E-11   -0.5858230567312717E-12    0.1437541995163993E-08
 -0.4426   0.2808    0.2430612635323474E-01    0.3981664996548423E-02   -0.1554905329307562E-04    0.1820338810348997E+00   -0.3721455429913087E+01   -0.2130856329621513E-05   -0.4102652453874533E-09    0.6294692198038909E-11   -0.4882622084423360E-12    0.1002487102878813E-08
 -0.4505   0.2505    0.1880012833469308E-01    0.4920419563111878E-02   -0.1653971240087174E-04    0.1876886989097727E+00   -0.4592524936640554E+01   -0.2634454395348757E-05   -0.4560750561932725E-09    0.1285725692579121E-10   -0.3868988462940592E-12    0.5529904608464681E-09
 -0.4585   0.2196    0.1409569267109348E-01    0.5919113866533464E-02   -0.1700677423842003E-04    0.1931701896138148E+00   -0.5517689551503827E+01   -0.3170497066402804E-05   -0.4881137855017315E-09    0.2076391836247637E-10   -0.2876587856803781E-12    0.1318717158041438E-09
 -0.4666   0.1884    0.1053622119370745E-01    0.6939798284281495E-02   -0.1684304587432980E-04    0.1990291782723214E+00   -0.6461568584300299E+01   -0.3718660759244112E-05   -0.5026355165416163E-09    0.2955265199222623E-10   -0.1704886232190006E-12   -0.2377055757091240E-09
 -0.4748   0.1568    0.8422247851415370E-02    0.7938058079586441E-02   -0.1599053175801331E-04    0.2055373010723670E+00   -0.7382937990896004E+01   -0.4255117255334612E-05   -0.4963843953931235E-09    0.3861710951014174E-10   -0.1079414335691808E-12   -0.5470401397492108E-09
 -0.4830   0.1252    0.7978924520390809E-02    0.8866396906789963E-02   -0.1442374314701893E-04    0.2128288009091638E+00   -0.8237868986377082E+01   -0.4754365208034581E-05   -0.4669597382378488E-09    0.4724645674691885E-10   -0.1935951399190117E-13   -0.7957807850178522E-09
 -0.4912   0.0935    0.9325439255800495E-02    0.9676904856039201E-02   -0.1213754471116577E-04    0.2209786776764975E+00   -0.8982202518227854E+01   -0.5190639408879721E-05   -0.4133266368055999E-09    0.5483008491680152E-10    0.3264055692397960E-13   -0.9877694764556799E-09
 -0.4993   0.0620    0.1244973753514194E-01    0.1032304364430281E-01   -0.9130150052593161E-05    0.2300357493797759E+00   -0.9573187981406274E+01   -0.5538900180218417E-05   -0.3361139595814411E-09    0.6085182358006591E-10    0.8590350653037149E-13   -0.1128444416902130E-08
 -0.5074   0.0308    0.1719015283142729E-01    0.1076117617723145E-01   -0.5412534119939185E-05    0.2400327945391335E+00   -0.9970908682764275E+01   -0.5775618309973213E-05   -0.2376614981203229E-09    0.6497186122444987E-10    0.9274525591962401E-13   -0.1223004394805549E-08
 -0.5154  -0.0001    0.2322593131767463E-01    0.1095286484829489E-01   -0.1026395386524880E-05    0.2509873096070040E+00   -0.1014038776568820E+02   -0.5880054169813805E-05   -0.1218392450732381E-09    0.6700645593937793E-10    0.3232136780439987E-13   -0.1276190266311095E-08
 -0.5233  -0.0304    0.3008171994718608E-01    0.1086877580985940E-01    0.3914992637210120E-05    0.2628990205952327E+00   -0.1005518511932149E+02   -0.5836309173295079E-05    0.6106735776778560E-11    0.6687461695520369E-10    0.7618905506490137E-14   -0.1292632586039066E-08
 -0.5310  -0.0600    0.3715346986359114E-01    0.1049426025343387E-01    0.9195824235604025E-05    0.2757466704364409E+00   -0.9702466794175939E+01   -0.5636396343954468E-05    0.1400967224174376E-09    0.6463979351778448E-10   -0.4707345624410664E-13   -0.1277155501147598E-08
 -0.5385  -0.0889    0.4376253177953140E-01    0.9835534702825091E-02    0.1447735002428219E-04    0.2894852991519899E+00   -0.9088620497434018E+01   -0.5283514531355810E-05    0.2735517160012968E-09    0.6048145317905096E-10   -0.1317279618717748E-12   -0.1234204349831458E-08
 -0.5457  -0.1168    0.4923765060874374E-01    0.8924273828984544E-02    0.1932529399718688E-04    0.3040447394700285E+00   -0.8243332178888256E+01   -0.4794620706371665E-05    0.4001385958685155E-09    0.5470701669452183E-10   -0.2106509411348156E-12   -0.1168740035306648E-08
 -0.5527  -0.1437    0.5301287576982418E-01    0.7818019396985306E-02    0.2327422657240810E-04    0.3193295904142520E+00   -0.7219876311303944E+01   -0.4200582339248088E-05    0.5144457984607165E-09    0.4777822582013869E-10   -0.2796651799030769E-12   -0.1085007908172009E-08
 -0.5593  -0.1695    0.5471741115841182E-01    0.6594670495314201E-02    0.2593316315963611E-04    0.3352202619606273E+00   -0.6089960377140896E+01   -0.3543325782800205E-05    0.6126955678920076E-09    0.4024219846243682E-10   -0.3415184801625060E-12   -0.9883593127951729E-09
 -0.5657  -0.1939    0.5423017956150048E-01    0.5341460504800414E-02    0.2707809785014705E-04    0.3515739311112011E+00   -0.4933660640668544E+01   -0.2869781361770767E-05    0.6930568619001320E-09    0.3268346704388136E-10   -0.3900768597020488E-12   -0.8831617173687967E-09
 -0.5717  -0.2171    0.5168125117566242E-01    0.4141274883707792E-02    0.2670947920195105E-04    0.3682238380173836E+00   -0.3826905385259649E+01   -0.2224636435581942E-05    0.7557703560201467E-09    0.2560629486225707E-10   -0.4292954880469324E-12   -0.7743442068108841E-09
 -0.5773  -0.2387    0.4740213385809780E-01    0.3060512035933306E-02    0.2503092579109047E-04    0.3849758423762347E+00   -0.2830494468524626E+01   -0.1643622428370557E-05    0.8025585959692272E-09    0.1937400240237253E-10   -0.4389127949977478E-12   -0.6656457919584913E-09
 -0.5825  -0.2588    0.4184520720063920E-01    0.2141991353340265E-02    0.2237958472092528E-04    0.4016028795806674E+00   -0.1983607802612338E+01   -0.1149864826955182E-05    0.8360149031383379E-09    0.1416505801543622E-10   -0.4423683641618936E-12   -0.5601101943364384E-09
 -0.5873  -0.2773    0.3550051921693272E-01    0.1404164549644601E-02    0.1911820794973134E-04    0.4178404781004528E+00   -0.1303174065818032E+01   -0.7532398457107262E-06    0.8589425004590368E-09    0.9997475070022688E-11   -0.4203859482743155E-12   -0.4603559894400533E-09
 -0.5916  -0.2940    0.2883190387121318E-01    0.8453439154433124E-03    0.1555633109640160E-04    0.4333884059429752E+00   -0.7876273199437934E+00   -0.4529131645299830E-06    0.8739309796668149E-09    0.6780432118547175E-11   -0.4443945211818345E-12   -0.3681047515413649E-09
 -0.5955  -0.3089    0.2224173229761121E-01    0.4502224010050640E-03    0.1189813915969091E-04    0.4479229561316633E+00   -0.4229300207372276E+00   -0.2405563467893276E-06    0.8831282059806878E-09    0.4386662907918115E-11   -0.4499595140927681E-12   -0.2848054170973002E-09
 -0.5989  -0.3220    0.1606036489388188E-01    0.1957725486686602E-03    0.8271890065412459E-05    0.4611204988527989E+00   -0.1877739452193095E+00   -0.1039112595650573E-06    0.8883190068947888E-09    0.2691062650495013E-11   -0.4585221091701897E-12   -0.2110548454753447E-09
 -0.6018  -0.3331    0.1054971628458561E-01    0.5475404252309924E-04    0.4793308579116905E-05    0.4726871154958244E+00   -0.5692235947723324E-01   -0.2822376324762456E-07    0.8909393934414256E-09    0.1587969339356121E-11   -0.4557985933129061E-12   -0.1474872888748702E-09
 -0.6041  -0.3423    0.5907734239244143E-02   -0.3440119967363658E-05    0.1730536990604327E-05    0.4823847480133314E+00   -0.1791602800487486E-02    0.2722746052333538E-08    0.8923055454246320E-09    0.9804101974708601E-12   -0.4897211108856325E-12   -0.9509076165370445E-10
 -0.6060  -0.3495    0.2265728693560484E-02   -0.1229486583182970E-04   -0.4532797749528913E-06    0.4900445626516819E+00    0.8533824673957149E-02    0.7163993536383400E-08    0.8934085006084141E-09    0.7303272570036157E-12   -0.4858540869970285E-12   -0.5350576665758000E-10
 -0.6073  -0.3547   -0.3206144267358130E-03   -0.4442790090885813E-05   -0.1123291788746133E-05    0.4955637226825855E+00    0.3791824572030510E-02    0.2398180360337021E-08    0.8952496367928969E-09    0.6446457950781692E-12   -0.5259256571910065E-12   -0.2393978223123872E-10
 -0.6082  -0.3578   -0.1863025967431378E-02   -0.1535665273702401E-06   -0.1537545972060977E-06    0.4988895250658062E+00    0.6122593369706666E-03    0.1314940714798173E-09    0.8975653677332357E-09    0.3522730067720414E-12   -0.3530704374699045E-12   -0.5719941664414363E-11
 -0.6084  -0.3588   -0.2378016434797323E-02    0.0000000000000000E+00    0.0000000000000000E+00    0.5000000000000000E+00   -0.9528893422822024E-04    0.0000000000000000E+00    0.0000000000000000E+00    0.0000000000000000E+00    0.0000000000000000E+00    0.0000000000000000E+00
 -0.3544   0.6084    0.2587076190902879E-01    0.0000000000000000E+00    0.0000000000000000E+00   -0.5000000000000000E+00   -0.4224879271861238E-02    0.0000000000000000E+00    0.0000000000000000E+00    0.0000000000000000E+00    0.0000000000000000E+00    0.0000000000000000E+00
 -0.3547   0.6073    0.2638129502362865E-01    0.1230522796702596E-05   -0.4565819493342185E-05   -0.4955870952007914E+00   -0.4506891931184507E-02   -0.2404415325347298E-08    0.2923169605678622E-10   -0.9468884010210843E-12   -0.1284207332488685E-11    0.6395769113973215E-11
 -0.3555   0.6042    0.2788867382836846E-01    0.1635749172344008E-04   -0.1636083871628629E-04   -0.4823694322450284E+00   -0.5925647721147802E-02   -0.3706137934421913E-07    0.2748123169998840E-10   -0.2832106727954087E-11   -0.3102056372189521E-11    0.2545775309309439E-10
 -0.3568   0.5991    0.3032437658165058E-01    0.6639832091233957E-04   -0.2610612889700884E-04   -0.4604232144033027E+00   -0.1236328419035568E-01   -0.1551635982361566E-06    0.2475130690682281E-10   -0.3790671769532405E-11   -0.3767500200702045E-11    0.5740350382532622E-10
 -0.3587   0.5919    0.3357492017162925E-01    0.1549891983355149E-03   -0.2750385974160030E-04   -0.4299195976505076E+00   -0.2729941170165811E-01   -0.3596942939716454E-06    0.2242010049835486E-10   -0.3808583656783604E-11   -0.3875884856119338E-11    0.1030453552347543E-09
 -0.3611   0.5827    0.3746409867480528E-01    0.2615933426149707E-03   -0.2225661847709055E-04   -0.3911912040926378E+00   -0.4830238991202277E-01   -0.5988832703999504E-06    0.2086748308871567E-10   -0.3760661920759745E-11   -0.3760665390206697E-11    0.1639994043345361E-09
 -0.3640   0.5715    0.4174102723310484E-01    0.3583422341012919E-03   -0.1420886294567612E-04   -0.3448211717102376E+00   -0.7005986563165502E-01   -0.8085104516071264E-06    0.1978236064542616E-10   -0.4470290457248005E-11   -0.3587218196099418E-11    0.2435667466327285E-09
 -0.3673   0.5585    0.4608871377343211E-01    0.4265281305934643E-03   -0.6865791358955351E-05   -0.2917445397391102E+00   -0.8851971015612660E-01   -0.9471388343757243E-06    0.1838685757468705E-10   -0.6420189033184975E-11   -0.3415235975967601E-11    0.3476084003972701E-09
 -0.3712   0.5435    0.5014507659515036E-01    0.4671563531523116E-03   -0.3106607853922961E-05   -0.2333439181917496E+00   -0.1037957557429412E+00   -0.1017057104918411E-05    0.1552717242975232E-10   -0.9609699321011522E-11   -0.3315193172065412E-11    0.4847353282655398E-09