 title="result"
 variables="x","y","P","u","v","t","omega","psi","RES1","RES2","RES3","RES4"
zone,j= 49,i= 49,f=point
 -0.2852   0.6470    0.2540657001207172E-01    0.0000000000000000E+00    0.0000000000000000E+00   -0.5000000000000000E+00    0.0000000000000000E+00    0.0000000000000000E+00    0.0000000000000000E+00    0.0000000000000000E+00    0.0000000000000000E+00    0.0000000000000000E+00
 -0.2856   0.6460    0.2590258265579395E-01    0.0000000000000000E+00    0.0000000000000000E+00   -0.4952758780978726E+00    0.2391172164682678E-03    0.0000000000000000E+00    0.0000000000000000E+00    0.0000000000000000E+00    0.0000000000000000E+00    0.0000000000000000E+00
 -0.2868   0.6430    0.2734669291223246E-01    0.0000000000000000E+00    0.0000000000000000E+00   -0.4811263678893221E+00   -0.4422358762996508E-02    0.0000000000000000E+00    0.0000000000000000E+00    0.0000000000000000E+00    0.0000000000000000E+00    0.0000000000000000E+00
 -0.2887   0.6381    0.2966519368203683E-01    0.0000000000000000E+00    0.0000000000000000E+00   -0.4576360279844209E+00   -0.3189579126648361E-01    0.0000000000000000E+00    0.0000000000000000E+00    0.0000000000000000E+00    0.0000000000000000E+00    0.0000000000000000E+00
 -0.2914   0.6311    0.3278785326130955E-01    0.0000000000000000E+00    0.0000000000000000E+00   -0.4250015948599015E+00   -0.9209303061346019E-01    0.0000000000000000E+00    0.0000000000000000E+00    0.0000000000000000E+00    0.0000000000000000E+00    0.0000000000000000E+00
 -0.2948   0.6223    0.3659200388353692E-01    0.0000000000000000E+00    0.0000000000000000E+00   -0.3836226025814621E+00   -0.1792538399701970E+00    0.0000000000000000E+00    0.0000000000000000E+00    0.0000000000000000E+00    0.0000000000000000E+00    0.0000000000000000E+00
 -0.2990   0.6115    0.4086994648638625E-01    0.0000000000000000E+00    0.0000000000000000E+00   -0.3342300813986194E+00   -0.2778168263732518E+00    0.0000000000000000E+00    0.0000000000000000E+00    0.0000000000000000E+00    0.0000000000000000E+00    0.0000000000000000E+00
 -0.3039   0.5990    0.4532502689914915E-01    0.0000000000000000E+00    0.0000000000000000E+00   -0.2780292115308078E+00   -0.3684694528688262E+00    0.0000000000000000E+00    0.0000000000000000E+00    0.0000000000000000E+00    0.0000000000000000E+00    0.0000000000000000E+00
 -0.3095   0.5846    0.4958375622011726E-01    0.0000000000000000E+00    0.0000000000000000E+00   -0.2168056817507126E+00   -0.4349266072930551E+00    0.0000000000000000E+00    0.0000000000000000E+00    0.0000000000000000E+00    0.0000000000000000E+00    0.0000000000000000E+00
 -0.3157   0.5685    0.5323088204521652E-01    0.0000000000000000E+00    0.0000000000000000E+00   -0.1529327948123989E+00   -0.4708195216997975E+00    0.0000000000000000E+00    0.0000000000000000E+00    0.0000000000000000E+00    0.0000000000000000E+00    0.0000000000000000E+00
 -0.3226   0.5507    0.5586464668211333E-01    0.0000000000000000E+00    0.0000000000000000E+00   -0.8923344466090180E-01   -0.4852663897124564E+00    0.0000000000000000E+00    0.0000000000000000E+00    0.0000000000000000E+00    0.0000000000000000E+00    0.0000000000000000E+00
 -0.3301   0.5314    0.5716673146272356E-01    0.0000000000000000E+00    0.0000000000000000E+00   -0.2869691713086934E-01   -0.5035882457436620E+00    0.0000000000000000E+00    0.0000000000000000E+00    0.0000000000000000E+00    0.0000000000000000E+00    0.0000000000000000E+00
 -0.3382   0.5105    0.5696252862416086E-01    0.0000000000000000E+00    0.0000000000000000E+00    0.2590079413337382E-01   -0.5608322269856183E+00    0.0000000000000000E+00    0.0000000000000000E+00    0.0000000000000000E+00    0.0000000000000000E+00    0.0000000000000000E+00
 -0.3469   0.4882    0.5524548991846102E-01    0.0000000000000000E+00    0.0000000000000000E+00    0.7239939572731169E-01   -0.6905600352319028E+00    0.0000000000000000E+00    0.0000000000000000E+00    0.0000000000000000E+00    0.0000000000000000E+00    0.0000000000000000E+00
 -0.3560   0.4647    0.5215409075385470E-01    0.0000000000000000E+00    0.0000000000000000E+00    0.1095990291080065E+00   -0.9158484704154559E+00    0.0000000000000000E+00    0.0000000000000000E+00    0.0000000000000000E+00    0.0000000000000000E+00    0.0000000000000000E+00
 -0.3656   0.4399    0.4792094327700483E-01    0.0000000000000000E+00    0.0000000000000000E+00    0.1374557671796139E+00   -0.1247905605342566E+01    0.0000000000000000E+00    0.0000000000000000E+00    0.0000000000000000E+00    0.0000000000000000E+00    0.0000000000000000E+00
 -0.3757   0.4140    0.4282492118248496E-01    0.0000000000000000E+00    0.0000000000000000E+00    0.1570339735696781E+00   -0.1690662812515410E+01    0.0000000000000000E+00    0.0000000000000000E+00    0.0000000000000000E+00    0.0000000000000000E+00    0.0000000000000000E+00
 -0.3861   0.3871    0.3716459226199190E-01    0.0000000000000000E+00    0.0000000000000000E+00    0.1701812297516498E+00   -0.2245156854829596E+01    0.0000000000000000E+00    0.0000000000000000E+00    0.0000000000000000E+00    0.0000000000000000E+00    0.0000000000000000E+00
 -0.3969   0.3593    0.3125003953480415E-01    0.0000000000000000E+00    0.0000000000000000E+00    0.1790211289186489E+00   -0.2909818998552564E+01    0.0000000000000000E+00    0.0000000000000000E+00    0.0000000000000000E+00    0.0000000000000000E+00    0.0000000000000000E+00
 -0.4080   0.3307    0.2540350449441954E-01    0.0000000000000000E+00    0.0000000000000000E+00    0.1854666911249341E+00   -0.3677729460109523E+01    0.0000000000000000E+00    0.0000000000000000E+00    0.0000000000000000E+00    0.0000000000000000E+00    0.0000000000000000E+00
 -0.4193   0.3015    0.1996008603368699E-01    0.0000000000000000E+00    0.0000000000000000E+00    0.1909368391815372E+00   -0.4533784060830666E+01    0.0000000000000000E+00    0.0000000000000000E+00    0.0000000000000000E+00    0.0000000000000000E+00    0.0000000000000000E+00
 -0.4308   0.2718    0.1526231391174435E-01    0.0000000000000000E+00    0.0000000000000000E+00    0.1963213747110329E+00   -0.5453671572976505E+01    0.0000000000000000E+00    0.0000000000000000E+00    0.0000000000000000E+00    0.0000000000000000E+00    0.0000000000000000E+00
 -0.4425   0.2417    0.1164448879724871E-01    0.0000000000000000E+00    0.0000000000000000E+00    0.2021063224233346E+00   -0.6404921467994808E+01    0.0000000000000000E+00    0.0000000000000000E+00    0.0000000000000000E+00    0.0000000000000000E+00    0.0000000000000000E+00
 -0.4543   0.2114    0.9408018117723417E-02    0.0000000000000000E+00    0.0000000000000000E+00    0.2085356601244175E+00   -0.7349301860661902E+01    0.0000000000000000E+00    0.0000000000000000E+00    0.0000000000000000E+00    0.0000000000000000E+00    0.0000000000000000E+00
 -0.4661   0.1809    0.8792435389713159E-02    0.0000000000000000E+00    0.0000000000000000E+00    0.2157334193631808E+00   -0.8245442822145415E+01    0.0000000000000000E+00    0.0000000000000000E+00    0.0000000000000000E+00    0.0000000000000000E+00    0.0000000000000000E+00
 -0.4780   0.1504    0.9947348867280624E-02    0.0000000000000000E+00    0.0000000000000000E+00    0.2237712043107115E+00   -0.9050816546864572E+01    0.0000000000000000E+00    0.0000000000000000E+00    0.0000000000000000E+00    0.0000000000000000E+00    0.0000000000000000E+00
 -0.4897   0.1201    0.1290774153278181E-01    0.0000000000000000E+00    0.0000000000000000E+00    0.2326970167889794E+00   -0.9722837075283133E+01    0.0000000000000000E+00    0.0000000000000000E+00    0.0000000000000000E+00    0.0000000000000000E+00    0.0000000000000000E+00
 -0.5014   0.0900    0.1757325569248867E-01    0.0000000000000000E+00    0.0000000000000000E+00    0.2425441356438181E+00   -0.1021961982955239E+02    0.0000000000000000E+00    0.0000000000000000E+00    0.0000000000000000E+00    0.0000000000000000E+00    0.0000000000000000E+00
 -0.5129   0.0603    0.2369238803843270E-01    0.0000000000000000E+00    0.0000000000000000E+00    0.2533316160241795E+00   -0.1050139862901669E+02    0.0000000000000000E+00    0.0000000000000000E+00    0.0000000000000000E+00    0.0000000000000000E+00    0.0000000000000000E+00
 -0.5243   0.0311    0.3085598531295305E-01    0.0000000000000000E+00    0.0000000000000000E+00    0.2650617293349242E+00   -0.1053363350892169E+02    0.0000000000000000E+00    0.0000000000000000E+00    0.0000000000000000E+00    0.0000000000000000E+00    0.0000000000000000E+00
 -0.5354   0.0025    0.3850826463759431E-01    0.0000000000000000E+00    0.0000000000000000E+00    0.2777165766023497E+00   -0.1029225941318293E+02    0.0000000000000000E+00    0.0000000000000000E+00    0.0000000000000000E+00    0.0000000000000000E+00    0.0000000000000000E+00
 -0.5461  -0.0253    0.4598520170145227E-01    0.0000000000000000E+00    0.0000000000000000E+00    0.2912550192876244E+00   -0.9770494269337238E+01    0.0000000000000000E+00    0.0000000000000000E+00    0.0000000000000000E+00    0.0000000000000000E+00    0.0000000000000000E+00
 -0.5566  -0.0522    0.5258559432411701E-01    0.0000000000000000E+00    0.0000000000000000E+00    0.3056107030795184E+00   -0.8985299584117879E+01    0.0000000000000000E+00    0.0000000000000000E+00    0.0000000000000000E+00    0.0000000000000000E+00    0.0000000000000000E+00
 -0.5666  -0.0781    0.5766874766202131E-01    0.0000000000000000E+00    0.0000000000000000E+00    0.3206915971706306E+00   -0.7980697904110686E+01    0.0000000000000000E+00    0.0000000000000000E+00    0.0000000000000000E+00    0.0000000000000000E+00    0.0000000000000000E+00
 -0.5763  -0.1029    0.6075788252932415E-01    0.0000000000000000E+00    0.0000000000000000E+00    0.3363808645531446E+00   -0.6825341570555767E+01    0.0000000000000000E+00    0.0000000000000000E+00    0.0000000000000000E+00    0.0000000000000000E+00    0.0000000000000000E+00
 -0.5854  -0.1264    0.6161875749850450E-01    0.0000000000000000E+00    0.0000000000000000E+00    0.3525380823672936E+00   -0.5603556773705737E+01    0.0000000000000000E+00    0.0000000000000000E+00    0.0000000000000000E+00    0.0000000000000000E+00    0.0000000000000000E+00
 -0.5940  -0.1487    0.6028697733275944E-01    0.0000000000000000E+00    0.0000000000000000E+00    0.3689992237135058E+00   -0.4401802103491065E+01    0.0000000000000000E+00    0.0000000000000000E+00    0.0000000000000000E+00    0.0000000000000000E+00    0.0000000000000000E+00
 -0.6021  -0.1696    0.5703579652278500E-01    0.0000000000000000E+00    0.0000000000000000E+00    0.3855739973039379E+00   -0.3294751643011525E+01    0.0000000000000000E+00    0.0000000000000000E+00    0.0000000000000000E+00    0.0000000000000000E+00    0.0000000000000000E+00
 -0.6096  -0.1889    0.5229948553632680E-01    0.0000000000000000E+00    0.0000000000000000E+00    0.4020406103167484E+00   -0.2335365060576106E+01    0.0000000000000000E+00    0.0000000000000000E+00    0.0000000000000000E+00    0.0000000000000000E+00    0.0000000000000000E+00
 -0.6165  -0.2067    0.4658174341124592E-01    0.0000000000000000E+00    0.0000000000000000E+00    0.4181405969291311E+00   -0.1551459462066617E+01    0.0000000000000000E+00    0.0000000000000000E+00    0.0000000000000000E+00    0.0000000000000000E+00    0.0000000000000000E+00
 -0.6228  -0.2228    0.4037781520076429E-01    0.0000000000000000E+00    0.0000000000000000E+00    0.4335787581743094E+00   -0.9483373112255384E+00    0.0000000000000000E+00    0.0000000000000000E+00    0.0000000000000000E+00    0.0000000000000000E+00    0.0000000000000000E+00
 -0.6284  -0.2372    0.3412600136043781E-01    0.0000000000000000E+00    0.0000000000000000E+00    0.4480334370266668E+00   -0.5149969687190293E+00    0.0000000000000000E+00    0.0000000000000000E+00    0.0000000000000000E+00    0.0000000000000000E+00    0.0000000000000000E+00
 -0.6333  -0.2497    0.2818914921967015E-01    0.0000000000000000E+00    0.0000000000000000E+00    0.4611789067177179E+00   -0.2305700245661977E+00    0.0000000000000000E+00    0.0000000000000000E+00    0.0000000000000000E+00    0.0000000000000000E+00    0.0000000000000000E+00
 -0.6374  -0.2605    0.2285543779884320E-01    0.0000000000000000E+00    0.0000000000000000E+00    0.4727155100624692E+00   -0.6867709341212694E-01    0.0000000000000000E+00    0.0000000000000000E+00    0.0000000000000000E+00    0.0000000000000000E+00    0.0000000000000000E+00
 -0.6409  -0.2693    0.1834398392202861E-01    0.0000000000000000E+00    0.0000000000000000E+00    0.4823978167664598E+00    0.1327393470117654E-02    0.0000000000000000E+00    0.0000000000000000E+00    0.0000000000000000E+00    0.0000000000000000E+00    0.0000000000000000E+00
 -0.6436  -0.2763    0.1480307133685563E-01    0.0000000000000000E+00    0.0000000000000000E+00    0.4900503852417223E+00    0.1397977329147696E-01    0.0000000000000000E+00    0.0000000000000000E+00    0.0000000000000000E+00    0.0000000000000000E+00    0.0000000000000000E+00
 -0.6455  -0.2812    0.1229994193865549E-01    0.0000000000000000E+00    0.0000000000000000E+00    0.4955660424987214E+00    0.5115098966701216E-02    0.0000000000000000E+00    0.0000000000000000E+00    0.0000000000000000E+00    0.0000000000000000E+00    0.0000000000000000E+00
 -0.6466  -0.2842    0.1081544236148805E-01    0.0000000000000000E+00    0.0000000000000000E+00    0.4988900894733428E+00   -0.6942685607593426E-04    0.0000000000000000E+00    0.0000000000000000E+00    0.0000000000000000E+00    0.0000000000000000E+00    0.0000000000000000E+00
 -0.6470  -0.2852    0.1032015407910981E-01    0.0000000000000000E+00    0.0000000000000000E+00    0.5000000000000000E+00    0.0000000000000000E+00    0.0000000000000000E+00    0.0000000000000000E+00    0.0000000000000000E+00    0.0000000000000000E+00    0.0000000000000000E+00
 -0.2842   0.6466    0.2560086563552242E-01    0.0000000000000000E+00    0.0000000000000000E+00   -0.5000000000000000E+00    0.2391841339207356E-03    0.0000000000000000E+00    0.0000000000000000E+00    0.0000000000000000E+00    0.0000000000000000E+00    0.0000000000000000E+00
 -0.2846   0.6456    0.2609596493067189E-01    0.7516795047120741E-07   -0.7511389321698545E-07   -0.4952757468369842E+00   -0.6189114923707247E-03   -0.4102494506416412E-10    0.1462734533703210E-08    0.9831285091577158E-13    0.1190820445723384E-12   -0.7356730350772944E-11
 -0.2858   0.6427    0.2754115639683093E-01    0.5690657868887925E-05   -0.1768646767431985E-05   -0.4811258369099356E+00   -0.6565319011130801E-02   -0.2850821128012554E-08    0.1463643426943828E-08    0.2521498634888708E-12    0.1499095986234877E-12   -0.2864398431987047E-10
 -0.2877   0.6377    0.2986073401681886E-01    0.3371017416509431E-04   -0.3800343405362630E-05   -0.4576347957662308E+00   -0.3125009805744437E-01   -0.1816584483726561E-07    0.1465358221049151E-08    0.2002478044493827E-12    0.1582831088420278E-12   -0.6444835984331654E-10
 -0.2904   0.6308    0.3297681963495267E-01    0.9520772415435596E-04   -0.4961682699754968E-05   -0.4249993063676384E+00   -0.8592946380917574E-01   -0.5153961108711662E-07    0.1467973321025995E-08   -0.3072576915119640E-12    0.2006936283827088E-12   -0.1134339601416290E-09
 -0.2938   0.6219    0.3676569663190715E-01    0.1854314333912049E-03   -0.5141253537496294E-05   -0.3836188759083926E+00   -0.1672674248885812E+00   -0.1004086463769824E-06    0.1470918015861189E-08   -0.1537672766893650E-11    0.2174267710319810E-12   -0.1736643155669793E-09
 -0.2980   0.6112    0.4102115094047573E-01    0.2885798826457590E-03   -0.4418307178277808E-05   -0.3342245773726008E+00   -0.2613990067430696E+00   -0.1560192243510553E-06    0.1472978100602873E-08   -0.3535415016298060E-11    0.2288481903978123E-12   -0.2405557489315591E-09
 -0.3029   0.5986    0.4544844890592745E-01    0.3845794175145299E-03   -0.3191688049900630E-05   -0.2780217281618095E+00   -0.3500797166416357E+00   -0.2076065518198019E-06    0.1472975969495083E-08   -0.6094277860135833E-11    0.2490646577868461E-12   -0.3050641961266365E-09
 -0.3085   0.5842    0.4967680181157447E-01    0.4562917438715846E-03   -0.1816079831271244E-05   -0.2167962425936854E+00   -0.4176012458105697E+00   -0.2458810431426840E-06    0.1469957787870318E-08   -0.8876330226392781E-11    0.2215189837118103E-12   -0.3515968904910238E-09
 -0.3147   0.5681    0.5329399376813204E-01    0.4968846878807845E-03   -0.7592329754390651E-06   -0.1529216936434066E+00   -0.4575454877124622E+00   -0.2672335605230452E-06    0.1463260262089816E-08   -0.1148535433426190E-10    0.2198441081957547E-12   -0.3593403768986647E-09
 -0.3216   0.5503    0.5590128077246989E-01    0.5157403826173804E-03   -0.3828450220563235E-06   -0.8922122377829327E-01   -0.4783329232011720E+00   -0.2767193441755647E-06    0.1452227888615841E-08   -0.1360526621918545E-10    0.1928002028861453E-12   -0.3027228606677923E-09
 -0.3291   0.5310    0.5718248672850146E-01    0.5392859346856884E-03   -0.9082701932624429E-06   -0.2868428983216216E-01   -0.5039995157647605E+00   -0.2886291415381100E-06    0.1435867300492860E-08   -0.1503871354703590E-10    0.1400225421721579E-12   -0.1565323148877695E-09
 -0.3372   0.5101    0.5696372639232550E-01    0.6042797875151608E-03   -0.2244239020727600E-05    0.2591304285433060E-01   -0.5681759486793198E+00   -0.3227557847466670E-06    0.1412481823344358E-08   -0.1574897504075246E-10    0.1287858708565182E-12    0.9937775602431032E-10
 -0.3459   0.4879    0.5523782765670086E-01    0.7460937225960875E-03   -0.4106686897097248E-05    0.7241050762948231E-01   -0.7033768535029011E+00   -0.3981444349960644E-06    0.1379453161073907E-08   -0.1581261510619214E-10    0.8193098977038460E-13    0.4738491404809864E-09
 -0.3550   0.4643    0.5214207444313632E-01    0.9892166718220275E-03   -0.6145878839769759E-05    0.1096083758529001E+00   -0.9322832282773861E+00   -0.5279336342255380E-06    0.1333375103038104E-08   -0.1533529553343627E-10   -0.2731148640577885E-13    0.9587944674316340E-09
 -0.3646   0.4395    0.4790804659093877E-01    0.1345664133122360E-02   -0.8159274696892888E-05    0.1374629624072659E+00   -0.1266134931127856E+01   -0.7185572843715775E-06    0.1270631376157350E-08   -0.1435333102373093E-10   -0.7117223477237644E-13    0.1525211894282119E-08
 -0.3747   0.4136    0.4281388725559891E-01    0.1819668561447972E-02   -0.1007448083935098E-04    0.1570389577134619E+00   -0.1708911857023296E+01   -0.9722747499950704E-06    0.1188505249077876E-08   -0.1278230993273510E-10   -0.1664501869669266E-12    0.2124580511519980E-08
 -0.3851   0.3867    0.3715741572341181E-01    0.2412226201443879E-02   -0.1189357645086869E-04    0.1701842659872831E+00   -0.2261437266328217E+01   -0.1289639300264633E-05    0.1086028610791656E-08   -0.1044801051230948E-10   -0.2224262440897462E-12    0.2698556388763818E-08
 -0.3959   0.3589    0.3124770119123413E-01    0.3121412493776075E-02   -0.1357180076974840E-04    0.1790226888351560E+00   -0.2921683909657619E+01   -0.1669666789789055E-05    0.9645759295462408E-09   -0.7105149801844846E-11   -0.3255937186530389E-12    0.3192549906730346E-08
 -0.4070   0.3303    0.2540577739571487E-01    0.3939526963660477E-02   -0.1502051566100873E-04    0.1854672851593585E+00   -0.3682184463947506E+01   -0.2108283332828972E-05    0.8278799278060855E-09   -0.2509594962396555E-11   -0.3952810301299792E-12    0.3571385669837168E-08
 -0.4183   0.3012    0.1996556459340887E-01    0.4850154143034057E-02   -0.1610687953607378E-04    0.1909368810226458E+00   -0.4527374045210698E+01   -0.2596752063305396E-05    0.6816753619909299E-09    0.3586846097913821E-11   -0.4863193181492420E-12    0.3822969340237532E-08
 -0.4298   0.2715    0.1526864586121635E-01    0.5827140751202766E-02   -0.1671286429854732E-04    0.1963211303200131E+00   -0.5432705005617390E+01   -0.3121089175594939E-05    0.5331901552219076E-09    0.1132608590248552E-10   -0.5589556595353429E-12    0.3956033623082889E-08
 -0.4415   0.2414    0.1164867477214111E-01    0.6835763347765959E-02   -0.1674085316628288E-04    0.2021059302396255E+00   -0.6365775291570741E+01   -0.3662710740780804E-05    0.3905813901472488E-09    0.2069319715580775E-10   -0.6529915497210936E-12    0.3991238211892983E-08
 -0.4533   0.2110    0.9406696563123255E-02    0.7835307573645508E-02   -0.1613938252148947E-04    0.2085351781295248E+00   -0.7288756149684136E+01   -0.4199774842553262E-05    0.2624090146563507E-09    0.3139957738262922E-10   -0.6696032617270475E-12    0.3951409022033558E-08
 -0.4651   0.1805    0.8782056080861479E-02    0.8781866792811621E-02   -0.1487621774978339E-04    0.2157328654888311E+00   -0.8160987650387996E+01   -0.4708723681751554E-05    0.1568178989441726E-09    0.4292668998040483E-10   -0.6717820744128744E-12    0.3857034757553945E-08
 -0.4770   0.1500    0.9924249050543187E-02    0.9630443048966930E-02   -0.1293617872456551E-04    0.2237705802476362E+00   -0.8940935057011623E+01   -0.5165363009914415E-05    0.8077540025741570E-10    0.5449862783279968E-10   -0.6599165658371930E-12    0.3724652948913776E-08
 -0.4887   0.1197    0.1286812609474052E-01    0.1033611673299340E-01   -0.1029320209513194E-04    0.2326963190516727E+00   -0.9587260621660926E+01   -0.5545544457302385E-05    0.3908344828329469E-10    0.6519118578296457E-10   -0.5948019854429276E-12    0.3566243635469424E-08
 -0.5004   0.0896    0.1751320130859756E-01    0.1085486083718306E-01   -0.6925023449808775E-05    0.2425433600804643E+00   -0.1005960143836128E+02   -0.5825539697446275E-05    0.3357213812504867E-10    0.7396971923867568E-10   -0.4565132993850085E-12    0.3390399335410910E-08
 -0.5120   0.0599    0.2360792845989716E-01    0.1114505633329961E-01   -0.2821883218829490E-05    0.2533307596902714E+00   -0.1031996518762614E+02   -0.5982920544811790E-05    0.6235460585368724E-10    0.7986244998647862E-10   -0.3088258815342471E-12    0.3203214308383773E-08
 -0.5233   0.0307    0.3074341330553537E-01    0.1117077900426930E-01    0.1963131975926114E-05    0.2650607913614488E+00   -0.1033578410237750E+02   -0.5998249137561532E-05    0.1195627134624455E-09    0.8203604462408975E-10   -0.1396747301152246E-12    0.3009308333773442E-08
 -0.5344   0.0021    0.3836463184654986E-01    0.1090731305765314E-01    0.7278976570423364E-05    0.2777155584602264E+00   -0.1008494287866378E+02   -0.5858132911431366E-05    0.1957586783646326E-09    0.7999445550410655E-10    0.5526135105071717E-13    0.2811075511255368E-08
 -0.5451  -0.0256    0.4580901575555595E-01    0.1034825165907940E-01    0.1283269268026432E-04    0.2912539243817190E+00   -0.9562263178338949E+01   -0.5558964326973553E-05    0.2788708916567906E-09    0.7366030008171265E-10    0.2704989010560155E-12    0.2610877136016709E-08
 -0.5556  -0.0525    0.5237747460837063E-01    0.9512179819931695E-02    0.1820000674487755E-04    0.3056095355768028E+00   -0.8785496707190402E+01   -0.5110644815820557E-05    0.3562755021557784E-09    0.6359940352140825E-10    0.4328343239379251E-12    0.2409502491626525E-08
 -0.5656  -0.0785    0.5743185548860719E-01    0.8446020322612451E-02    0.2287021609593491E-04    0.3206903602337599E+00   -0.7798293678836820E+01   -0.4538294684396271E-05    0.4171059608815142E-09    0.5088990340240684E-10    0.6208228375825797E-12    0.2207038149459883E-08
 -0.5753  -0.1032    0.6049780660644993E-01    0.7222364958924671E-02    0.2635656613624758E-04    0.3363795586364139E+00   -0.6667607309237130E+01   -0.3880968228829223E-05    0.4545544635137233E-09    0.3705413753607445E-10    0.7274597590978260E-12    0.2004210910080961E-08
 -0.5844  -0.1268    0.6134286083861019E-01    0.5930020681679724E-02    0.2830853709754346E-04    0.3525367047388827E+00   -0.5475034328476151E+01   -0.3186420667850625E-05    0.4670722489330537E-09    0.2372563256969329E-10    0.8124056982694583E-12    0.1800607291740919E-08
 -0.5930  -0.1491    0.6000325867907034E-01    0.4659834371510604E-02    0.2860713420219928E-04    0.3689977705662504E+00   -0.4303820383717368E+01   -0.2503632074662244E-05    0.4580621576488753E-09    0.1229666368729454E-10    0.8534284390293578E-12    0.1596741678114300E-08
 -0.6011  -0.1699    0.5675173006193815E-01    0.3490173596383069E-02    0.2737595423569013E-04    0.3855724692956161E+00   -0.3225715268616073E+01   -0.1874775358134135E-05    0.4342532999856985E-09    0.3645389545781086E-11    0.7979589211615234E-12    0.1393729664664334E-08
 -0.6086  -0.1893    0.5202108661746301E-01    0.2476599022298569E-02    0.2492707150641432E-04    0.4020390209200606E+00   -0.2291535276461113E+01   -0.1329856470108944E-05    0.4033245265544494E-09   -0.1983455066856266E-11    0.7741723928589295E-12    0.1193353818540466E-08
 -0.6155  -0.2071    0.4631324454230904E-01    0.1648304318882419E-02    0.2164796081731918E-04    0.4181389808609380E+00   -0.1528029319280511E+01   -0.8845310226038273E-06    0.3719764357645872E-09   -0.4887090732097477E-11    0.7245454236581850E-12    0.9980622456967625E-09
 -0.6218  -0.2232    0.4012177813139434E-01    0.1010866469393203E-02    0.1789788964710364E-04    0.4335771754448177E+00   -0.9402820401693989E+00   -0.5418915481048789E-06    0.3447338595141680E-09   -0.5701439320660029E-11    0.7124995038410020E-12    0.8105989560136528E-09
 -0.6274  -0.2375    0.3388386646719951E-01    0.5526918334449059E-03    0.1393559718612481E-04    0.4480319682513875E+00   -0.5176785558354214E+00   -0.2955917844940830E-06    0.3238253935833324E-09   -0.5182450822649454E-11    0.6801226248853709E-12    0.6351311716140673E-09
 -0.6323  -0.2501    0.2796163809150716E-01    0.2517057305551776E-03    0.9923979308652747E-05    0.4611776381197650E+00   -0.2397948386339969E+00   -0.1339016239726049E-06    0.3095089809446172E-09   -0.4029099970326300E-11    0.7014111513825583E-12    0.4749227677791623E-09
 -0.6364  -0.2609    0.2264271321143730E-01    0.7982987023133651E-04    0.6002993440238224E-05    0.4727145114080850E+00   -0.8062650283376398E-01   -0.4159565758982897E-07    0.3008628415845926E-09   -0.2786191416470629E-11    0.6799491525377732E-12    0.3339920623054993E-09
 -0.6399  -0.2697    0.1814489311197873E-01    0.4364758995906992E-05    0.2456616539444043E-05    0.4823971200928294E+00   -0.9612306296277786E-02   -0.1366073545667698E-08    0.2960849985328418E-09   -0.1812223981989547E-11    0.6880676584053447E-12    0.2156629588453973E-09
 -0.6426  -0.2767    0.1461373434331738E-01   -0.1146995283881386E-04   -0.1840711893880813E-06    0.4900499738524959E+00    0.7257063714964982E-02    0.6816006786091784E-08    0.2933336539705060E-09   -0.1242166092207952E-11    0.6973180713409910E-12    0.1221032125235666E-09
 -0.6445  -0.2816    0.1211200094891481E-01   -0.4785847807719457E-05   -0.1165593996740280E-05    0.4955658560941915E+00    0.3895917158000748E-02    0.2610568491525667E-08    0.2904187103476563E-09   -0.9837699231629582E-12    0.7502210658261177E-12    0.5436861117563696E-10
 -0.6456  -0.2846    0.1062515884926298E-01   -0.1873254163370982E-06   -0.1874036778625662E-06    0.4988900426696484E+00    0.6748779466645830E-03    0.1597963023929743E-09    0.2870529174602010E-09   -0.5061935029124220E-12    0.5204855643703432E-12    0.1377724675880390E-10
 -0.6460  -0.2856    0.1012965539374151E-01    0.0000000000000000E+00    0.0000000000000000E+00    0.5000000000000000E+00   -0.6904031990535582E-04    0.0000000000000000E+00    0.0000000000000000E+00    0.0000000000000000E+00    0.0000000000000000E+00    0.0000000000000000E+00
 -0.2812   0.6455    0.2619651770505536E-01    0.0000000000000000E+00    0.0000000000000000E+00   -0.5000000000000000E+00   -0.4419709767403684E-02    0.0000000000000000E+00    0.0000000000000000E+00    0.0000000000000000E+00    0.0000000000000000E+00    0.0000000000000000E+00
 -0.2816   0.6445    0.2668505833897868E-01    0.1767452322339297E-05   -0.5688673871344283E-05   -0.4952738016571133E+00   -0.6563999075617333E-02   -0.2849587566125273E-08    0.1463344613018835E-08    0.1561621925522116E-12    0.1573242404406816E-12   -0.7147602388429819E-11
 -0.2828   0.6415    0.2812202235646690E-01    0.2686665102570506E-04   -0.2687091450363902E-04   -0.4811179952628404E+00   -0.1301020691772527E-01   -0.5470050041601101E-07    0.1463803061402258E-08    0.4855971310821494E-12    0.4745917200899008E-12   -0.2870753851649810E-10
 -0.2847   0.6365    0.3043545536590864E-01    0.1264503369119948E-03   -0.5491971593731285E-04   -0.4576167385846420E+00   -0.3044603352575613E-01   -0.2789120123038485E-06    0.1465132976746775E-08    0.2020397738000668E-12    0.8783772320608563E-12   -0.6433732366306621E-10
 -0.2874   0.6296    0.3353133672159100E-01    0.3429426718974995E-03   -0.7365342454267512E-04   -0.4249660390303934E+00   -0.7047799399433360E-01   -0.7684360852717861E-06    0.1467386510911606E-08   -0.1749593525612880E-11    0.1391341902801102E-11   -0.1133970868594236E-09
 -0.2908   0.6207    0.3727765824812423E-01    0.6699509772859623E-03   -0.7755376461990872E-04   -0.3835649559398884E+00   -0.1355738045125247E+00   -0.1498933624165479E-05    0.1470003729853175E-08   -0.6340299812945815E-11    0.1837772989343733E-11   -0.1736408274111145E-09
 -0.2950   0.6100    0.4146961461184925E-01    0.1055440340154498E-02   -0.6826894001383744E-04   -0.3341450193123615E+00   -0.2169447213165624E+00   -0.2348341388204479E-05    0.1471915291040293E-08   -0.1377458563878164E-10    0.2099074386530120E-11   -0.2405743174116459E-09
 -0.2999   0.5974    0.4581749429236182E-01    0.1426753407035434E-02   -0.5056133350005431E-04   -0.2779133583998084E+00   -0.2997601053322634E+00   -0.3154116700127387E-05    0.1471939795744115E-08   -0.2338533533485787E-10    0.2120003825267780E-11   -0.3051099997652962E-09
 -0.3055   0.5830    0.4995806697303733E-01    0.1719298410983228E-02   -0.3042769549725204E-04   -0.2166590587277765E+00   -0.3700778150594835E+00   -0.3774260744089050E-05    0.1469112859142641E-08   -0.3389476199711083E-10    0.1955130501940516E-11   -0.3516082217047689E-09