 title="result"
 variables="x","y","P","u","v","t","omega","psi","RES1","RES2","RES3","RES4"
zone,j= 49,i= 49,f=point
 -0.3231   0.6290    0.2536596778173361E-01    0.0000000000000000E+00    0.0000000000000000E+00   -0.5000000000000000E+00    0.0000000000000000E+00    0.0000000000000000E+00    0.0000000000000000E+00    0.0000000000000000E+00    0.0000000000000000E+00    0.0000000000000000E+00
 -0.3234   0.6280    0.2587230650290549E-01    0.0000000000000000E+00    0.0000000000000000E+00   -0.4954288582857358E+00    0.1237704261327296E-03    0.0000000000000000E+00    0.0000000000000000E+00    0.0000000000000000E+00    0.0000000000000000E+00    0.0000000000000000E+00
 -0.3244   0.6249    0.2735390508432654E-01    0.0000000000000000E+00    0.0000000000000000E+00   -0.4817374095271386E+00   -0.4279840750168150E-02    0.0000000000000000E+00    0.0000000000000000E+00    0.0000000000000000E+00    0.0000000000000000E+00    0.0000000000000000E+00
 -0.3260   0.6198    0.2974131246488109E-01    0.0000000000000000E+00    0.0000000000000000E+00   -0.4590061060392310E+00   -0.2562848477613083E-01    0.0000000000000000E+00    0.0000000000000000E+00    0.0000000000000000E+00    0.0000000000000000E+00    0.0000000000000000E+00
 -0.3283   0.6128    0.3294762186847338E-01    0.0000000000000000E+00    0.0000000000000000E+00   -0.4274188588857255E+00   -0.6814937793690028E-01    0.0000000000000000E+00    0.0000000000000000E+00    0.0000000000000000E+00    0.0000000000000000E+00    0.0000000000000000E+00
 -0.3312   0.6037    0.3682134935127820E-01    0.0000000000000000E+00    0.0000000000000000E+00   -0.3873411866440279E+00   -0.1253167457612482E+00    0.0000000000000000E+00    0.0000000000000000E+00    0.0000000000000000E+00    0.0000000000000000E+00    0.0000000000000000E+00
 -0.3347   0.5927    0.4112953991223504E-01    0.0000000000000000E+00    0.0000000000000000E+00   -0.3394286446950204E+00   -0.1857667384749370E+00    0.0000000000000000E+00    0.0000000000000000E+00    0.0000000000000000E+00    0.0000000000000000E+00    0.0000000000000000E+00
 -0.3389   0.5799    0.4556242022653828E-01    0.0000000000000000E+00    0.0000000000000000E+00   -0.2847490305141549E+00   -0.2377291592282709E+00    0.0000000000000000E+00    0.0000000000000000E+00    0.0000000000000000E+00    0.0000000000000000E+00    0.0000000000000000E+00
 -0.3436   0.5652    0.4974975565465026E-01    0.0000000000000000E+00    0.0000000000000000E+00   -0.2248850985900236E+00   -0.2733838670757111E+00    0.0000000000000000E+00    0.0000000000000000E+00    0.0000000000000000E+00    0.0000000000000000E+00    0.0000000000000000E+00
 -0.3489   0.5488    0.5329357894540469E-01    0.0000000000000000E+00    0.0000000000000000E+00   -0.1619722474964189E+00   -0.2931315962896188E+00    0.0000000000000000E+00    0.0000000000000000E+00    0.0000000000000000E+00    0.0000000000000000E+00    0.0000000000000000E+00
 -0.3547   0.5306    0.5581657722305952E-01    0.0000000000000000E+00    0.0000000000000000E+00   -0.9862746293219392E-01   -0.3089783691530813E+00    0.0000000000000000E+00    0.0000000000000000E+00    0.0000000000000000E+00    0.0000000000000000E+00    0.0000000000000000E+00
 -0.3610   0.5109    0.5702169988875680E-01    0.0000000000000000E+00    0.0000000000000000E+00   -0.3774600808694375E-01   -0.3443539994282354E+00    0.0000000000000000E+00    0.0000000000000000E+00    0.0000000000000000E+00    0.0000000000000000E+00    0.0000000000000000E+00
 -0.3679   0.4896    0.5674369485583233E-01    0.0000000000000000E+00    0.0000000000000000E+00    0.1782659114742717E-01   -0.4287169653560765E+00    0.0000000000000000E+00    0.0000000000000000E+00    0.0000000000000000E+00    0.0000000000000000E+00    0.0000000000000000E+00
 -0.3752   0.4668    0.5497107518047079E-01    0.0000000000000000E+00    0.0000000000000000E+00    0.6570739770891428E-01   -0.5890132474413721E+00    0.0000000000000000E+00    0.0000000000000000E+00    0.0000000000000000E+00    0.0000000000000000E+00    0.0000000000000000E+00
 -0.3829   0.4427    0.5182919270868889E-01    0.0000000000000000E+00    0.0000000000000000E+00    0.1043959121343625E+00   -0.8433699597300236E+00    0.0000000000000000E+00    0.0000000000000000E+00    0.0000000000000000E+00    0.0000000000000000E+00    0.0000000000000000E+00
 -0.3911   0.4174    0.4753903402055576E-01    0.0000000000000000E+00    0.0000000000000000E+00    0.1335752777345968E+00   -0.1200825001428601E+01    0.0000000000000000E+00    0.0000000000000000E+00    0.0000000000000000E+00    0.0000000000000000E+00    0.0000000000000000E+00
 -0.3996   0.3910    0.4237579307264051E-01    0.0000000000000000E+00    0.0000000000000000E+00    0.1541483641552190E+00   -0.1665298274663007E+01    0.0000000000000000E+00    0.0000000000000000E+00    0.0000000000000000E+00    0.0000000000000000E+00    0.0000000000000000E+00
 -0.4084   0.3635    0.3664242425388680E-01    0.0000000000000000E+00    0.0000000000000000E+00    0.1679356634736180E+00   -0.2238689890879110E+01    0.0000000000000000E+00    0.0000000000000000E+00    0.0000000000000000E+00    0.0000000000000000E+00    0.0000000000000000E+00
 -0.4175   0.3351    0.3065809736356637E-01    0.0000000000000000E+00    0.0000000000000000E+00    0.1771305112255492E+00   -0.2920213859819664E+01    0.0000000000000000E+00    0.0000000000000000E+00    0.0000000000000000E+00    0.0000000000000000E+00    0.0000000000000000E+00
 -0.4269   0.3060    0.2475551325001939E-01    0.0000000000000000E+00    0.0000000000000000E+00    0.1837496282411151E+00   -0.3703200414030901E+01    0.0000000000000000E+00    0.0000000000000000E+00    0.0000000000000000E+00    0.0000000000000000E+00    0.0000000000000000E+00
 -0.4364   0.2762    0.1927967108155145E-01    0.0000000000000000E+00    0.0000000000000000E+00    0.1893009795211662E+00   -0.4572124395781374E+01    0.0000000000000000E+00    0.0000000000000000E+00    0.0000000000000000E+00    0.0000000000000000E+00    0.0000000000000000E+00
 -0.4462   0.2458    0.1458105526299912E-01    0.0000000000000000E+00    0.0000000000000000E+00    0.1947307372538843E+00   -0.5501623701259740E+01    0.0000000000000000E+00    0.0000000000000000E+00    0.0000000000000000E+00    0.0000000000000000E+00    0.0000000000000000E+00
 -0.4561   0.2151    0.1099847223196310E-01    0.0000000000000000E+00    0.0000000000000000E+00    0.2005531567369015E+00   -0.6457730695966663E+01    0.0000000000000000E+00    0.0000000000000000E+00    0.0000000000000000E+00    0.0000000000000000E+00    0.0000000000000000E+00
 -0.4660   0.1841    0.8832593169083592E-02    0.0000000000000000E+00    0.0000000000000000E+00    0.2070238678880958E+00   -0.7400522472575117E+01    0.0000000000000000E+00    0.0000000000000000E+00    0.0000000000000000E+00    0.0000000000000000E+00    0.0000000000000000E+00
 -0.4760   0.1530    0.8315332106092161E-02    0.0000000000000000E+00    0.0000000000000000E+00    0.2142710494906406E+00   -0.8287007025517257E+01    0.0000000000000000E+00    0.0000000000000000E+00    0.0000000000000000E+00    0.0000000000000000E+00    0.0000000000000000E+00
 -0.4860   0.1218    0.9580647421738548E-02    0.0000000000000000E+00    0.0000000000000000E+00    0.2223676244293762E+00   -0.9073353571989109E+01    0.0000000000000000E+00    0.0000000000000000E+00    0.0000000000000000E+00    0.0000000000000000E+00    0.0000000000000000E+00
 -0.4960   0.0908    0.1263964509680215E-01    0.0000000000000000E+00    0.0000000000000000E+00    0.2313618511295401E+00   -0.9716268138575996E+01    0.0000000000000000E+00    0.0000000000000000E+00    0.0000000000000000E+00    0.0000000000000000E+00    0.0000000000000000E+00
 -0.5059   0.0601    0.1736100063262154E-01    0.0000000000000000E+00    0.0000000000000000E+00    0.2412866830449046E+00   -0.1017408176245139E+02    0.0000000000000000E+00    0.0000000000000000E+00    0.0000000000000000E+00    0.0000000000000000E+00    0.0000000000000000E+00
 -0.5156   0.0297    0.2345820352971071E-01    0.0000000000000000E+00    0.0000000000000000E+00    0.2521603408471745E+00   -0.1040853916953790E+02    0.0000000000000000E+00    0.0000000000000000E+00    0.0000000000000000E+00    0.0000000000000000E+00    0.0000000000000000E+00
 -0.5252  -0.0001    0.3048834187838405E-01    0.0000000000000000E+00    0.0000000000000000E+00    0.2639837673187365E+00   -0.1038821075860359E+02    0.0000000000000000E+00    0.0000000000000000E+00    0.0000000000000000E+00    0.0000000000000000E+00    0.0000000000000000E+00
 -0.5346  -0.0292    0.3787042104985701E-01    0.0000000000000000E+00    0.0000000000000000E+00    0.2767373177540660E+00   -0.1009379494920839E+02    0.0000000000000000E+00    0.0000000000000000E+00    0.0000000000000000E+00    0.0000000000000000E+00    0.0000000000000000E+00
 -0.5437  -0.0576    0.4493157782831719E-01    0.0000000000000000E+00    0.0000000000000000E+00    0.2903778596112746E+00   -0.9524510521671218E+01    0.0000000000000000E+00    0.0000000000000000E+00    0.0000000000000000E+00    0.0000000000000000E+00    0.0000000000000000E+00
 -0.5525  -0.0851    0.5098384038212755E-01    0.0000000000000000E+00    0.0000000000000000E+00    0.3048370309481118E+00   -0.8703573234378991E+01    0.0000000000000000E+00    0.0000000000000000E+00    0.0000000000000000E+00    0.0000000000000000E+00    0.0000000000000000E+00
 -0.5610  -0.1115    0.5542230599218374E-01    0.0000000000000000E+00    0.0000000000000000E+00    0.3200210034370154E+00   -0.7680101027736794E+01    0.0000000000000000E+00    0.0000000000000000E+00    0.0000000000000000E+00    0.0000000000000000E+00    0.0000000000000000E+00
 -0.5691  -0.1368    0.5782221539573196E-01    0.0000000000000000E+00    0.0000000000000000E+00    0.3358114577906934E+00   -0.6525295458642097E+01    0.0000000000000000E+00    0.0000000000000000E+00    0.0000000000000000E+00    0.0000000000000000E+00    0.0000000000000000E+00
 -0.5769  -0.1609    0.5800576338332311E-01    0.0000000000000000E+00    0.0000000000000000E+00    0.3520667020750746E+00   -0.5322701886926732E+01    0.0000000000000000E+00    0.0000000000000000E+00    0.0000000000000000E+00    0.0000000000000000E+00    0.0000000000000000E+00
 -0.5842  -0.1837    0.5605644003547925E-01    0.0000000000000000E+00    0.0000000000000000E+00    0.3686213474808429E+00   -0.4154893765106865E+01    0.0000000000000000E+00    0.0000000000000000E+00    0.0000000000000000E+00    0.0000000000000000E+00    0.0000000000000000E+00
 -0.5910  -0.2049    0.5227776281532250E-01    0.0000000000000000E+00    0.0000000000000000E+00    0.3852832859744532E+00   -0.3090716899234107E+01    0.0000000000000000E+00    0.0000000000000000E+00    0.0000000000000000E+00    0.0000000000000000E+00    0.0000000000000000E+00
 -0.5974  -0.2247    0.4711436324867504E-01    0.0000000000000000E+00    0.0000000000000000E+00    0.4018283028209272E+00   -0.2176952849337020E+01    0.0000000000000000E+00    0.0000000000000000E+00    0.0000000000000000E+00    0.0000000000000000E+00    0.0000000000000000E+00
 -0.6032  -0.2429    0.4106430156648584E-01    0.0000000000000000E+00    0.0000000000000000E+00    0.4179952115150253E+00   -0.1436253926133934E+01    0.0000000000000000E+00    0.0000000000000000E+00    0.0000000000000000E+00    0.0000000000000000E+00    0.0000000000000000E+00
 -0.6085  -0.2593    0.3460811888907608E-01    0.0000000000000000E+00    0.0000000000000000E+00    0.4334865726106755E+00   -0.8704902827547227E+00    0.0000000000000000E+00    0.0000000000000000E+00    0.0000000000000000E+00    0.0000000000000000E+00    0.0000000000000000E+00
 -0.6132  -0.2740    0.2816693675972940E-01    0.0000000000000000E+00    0.0000000000000000E+00    0.4479798929836666E+00   -0.4669752417115034E+00    0.0000000000000000E+00    0.0000000000000000E+00    0.0000000000000000E+00    0.0000000000000000E+00    0.0000000000000000E+00
 -0.6173  -0.2868    0.2208809578860442E-01    0.0000000000000000E+00    0.0000000000000000E+00    0.4611505493640600E+00   -0.2044882795313492E+00    0.0000000000000000E+00    0.0000000000000000E+00    0.0000000000000000E+00    0.0000000000000000E+00    0.0000000000000000E+00
 -0.6209  -0.2978    0.1664745357857729E-01    0.0000000000000000E+00    0.0000000000000000E+00    0.4727016874389016E+00   -0.5712216594964410E-01    0.0000000000000000E+00    0.0000000000000000E+00    0.0000000000000000E+00    0.0000000000000000E+00    0.0000000000000000E+00
 -0.6238  -0.3069    0.1205472666337224E-01    0.0000000000000000E+00    0.0000000000000000E+00    0.4823914354425445E+00    0.4756814565487165E-02    0.0000000000000000E+00    0.0000000000000000E+00    0.0000000000000000E+00    0.0000000000000000E+00    0.0000000000000000E+00
 -0.6260  -0.3139    0.8451405971641351E-02    0.0000000000000000E+00    0.0000000000000000E+00    0.4900475350272128E+00    0.1416770132217105E-01    0.0000000000000000E+00    0.0000000000000000E+00    0.0000000000000000E+00    0.0000000000000000E+00    0.0000000000000000E+00
 -0.6277  -0.3190    0.5901025039229213E-02    0.0000000000000000E+00    0.0000000000000000E+00    0.4955649053664154E+00    0.4867162041517561E-02    0.0000000000000000E+00    0.0000000000000000E+00    0.0000000000000000E+00    0.0000000000000000E+00    0.0000000000000000E+00
 -0.6287  -0.3221    0.4385659250191960E-02    0.0000000000000000E+00    0.0000000000000000E+00    0.4988898126909540E+00   -0.8230090376208944E-04    0.0000000000000000E+00    0.0000000000000000E+00    0.0000000000000000E+00    0.0000000000000000E+00    0.0000000000000000E+00
 -0.6290  -0.3231    0.3879574845369155E-02    0.0000000000000000E+00    0.0000000000000000E+00    0.5000000000000000E+00    0.0000000000000000E+00    0.0000000000000000E+00    0.0000000000000000E+00    0.0000000000000000E+00    0.0000000000000000E+00    0.0000000000000000E+00
 -0.3221   0.6287    0.2553064594612205E-01    0.0000000000000000E+00    0.0000000000000000E+00   -0.5000000000000000E+00    0.1237057108769871E-03    0.0000000000000000E+00    0.0000000000000000E+00    0.0000000000000000E+00    0.0000000000000000E+00    0.0000000000000000E+00
 -0.3224   0.6276    0.2603623773184180E-01    0.1209328441956716E-06   -0.1209569330309422E-06   -0.4954287381328960E+00   -0.5830693218736103E-03   -0.7540301628742053E-10    0.1992636861178516E-09   -0.6971224812690746E-12   -0.7017218837251926E-12    0.7185971869633212E-11
 -0.3234   0.6246    0.2751831208686581E-01    0.5068506828330102E-05   -0.1480193801914807E-05   -0.4817369248571698E+00   -0.5464524819946357E-02   -0.2598313825078507E-08    0.1944759726521528E-09   -0.1291995590374517E-11   -0.1025396781373367E-11    0.2937095792271416E-10
 -0.3250   0.6195    0.2990513633613439E-01    0.2656721249824238E-04   -0.2801700206356309E-05   -0.4590049907655274E+00   -0.2411704749929784E-01   -0.1441232255968677E-07    0.1902309117521317E-09   -0.1254939728523308E-11   -0.1002030056151959E-11    0.6647816845617438E-10
 -0.3273   0.6124    0.3310420455959787E-01    0.6984191135597968E-04   -0.3373548372309095E-05   -0.4274168142496858E+00   -0.6244387451164870E-01   -0.3791354818674954E-07    0.1876905783571026E-09   -0.1056122203579868E-11   -0.1017507259004624E-11    0.1189848445465325E-09
 -0.3302   0.6034    0.3696420182373929E-01    0.1290072461771817E-03   -0.3263910562587436E-05   -0.3873378995272834E+00   -0.1157681728515216E+00   -0.6997325813332681E-07    0.1862619711245905E-09   -0.9178074966698091E-12   -0.9958631141948615E-12    0.1888264891669600E-09
 -0.3337   0.5924    0.4125369992132963E-01    0.1924468912093011E-03   -0.2627436236810492E-05   -0.3394238294559841E+00   -0.1738385806769333E+00   -0.1041349690995166E-06    0.1855419342472464E-09   -0.1057608861598780E-11   -0.9787483323808743E-12    0.2795117540199676E-09
 -0.3378   0.5796    0.4566450404072250E-01    0.2479032471029543E-03   -0.1778223515693734E-05   -0.2847424873881431E+00   -0.2254716508600448E+00   -0.1338661109495030E-06    0.1844563599084914E-09   -0.1609601341101552E-11   -0.9687632640531518E-12    0.3965692912943908E-09
 -0.3426   0.5649    0.4982831975654069E-01    0.2871317154112338E-03   -0.9708334937483266E-06   -0.2248767768883404E+00   -0.2631114312148934E+00   -0.1546644605547019E-06    0.1817697786992561E-09   -0.2578187663360154E-11   -0.9887611562842125E-12    0.5480269918423097E-09
 -0.3478   0.5484    0.5334932248906325E-01    0.3104806952487884E-03   -0.5197156010639452E-06   -0.1619622949740975E+00   -0.2869853623949052E+00   -0.1667800944067377E-06    0.1758989176103148E-09   -0.3860594136040341E-11   -0.9334746517430936E-12    0.7442784721867213E-09
 -0.3537   0.5303    0.5585229949897993E-01    0.3304681951376303E-03   -0.6594737282975950E-06   -0.9861624424719752E-01   -0.3084864193047334E+00   -0.1769353086991051E-06    0.1651002520461353E-09   -0.5306977296851145E-11   -0.9351902932608347E-12    0.9923638855102723E-09
 -0.3600   0.5105    0.5704169062760121E-01    0.3716389179431968E-03   -0.1512277406648668E-05   -0.3773408766094635E-01   -0.3500254827301292E+00   -0.1983920101778044E-06    0.1472997778438623E-09   -0.6767239546512371E-11   -0.9571978626388145E-12    0.1290124077013566E-08
 -0.3669   0.4892    0.5675271965341655E-01    0.4649556556028264E-03   -0.2974040425474092E-05    0.1783849661932561E-01   -0.4399959152872833E+00   -0.2478037992782101E-06    0.1203640832836417E-09   -0.8112229638035373E-11   -0.9296174940942592E-12    0.1619047299006304E-08
 -0.3742   0.4665    0.5497346742520540E-01    0.6388644876337082E-03   -0.4806455483477346E-05    0.6571849903847378E-01   -0.6045890904108688E+00   -0.3404846614641524E-06    0.8237008124190037E-10   -0.9221130803371835E-11   -0.9203367234977833E-12    0.1940083996232467E-08
 -0.3819   0.4424    0.5182850816595461E-01    0.9126277326931052E-03   -0.6744958518877613E-05    0.1044054725157728E+00   -0.8616714733449967E+00   -0.4867589013657506E-06    0.3235254598943360E-10   -0.9951345303349513E-11   -0.8735720480324005E-12    0.2197744340681762E-08
 -0.3900   0.4171    0.4753820637101374E-01    0.1295929700996640E-02   -0.8648999976128997E-05    0.1335827747780190E+00   -0.1220296800911218E+01   -0.6918175075726436E-06   -0.2912072666338972E-10   -0.1012381845022503E-10   -0.8338121859630121E-12    0.2334704554685096E-08
 -0.3985   0.3906    0.4237728748832942E-01    0.1792943780652720E-02   -0.1047956521839850E-04    0.1541536272917488E+00   -0.1684346123107474E+01   -0.9578929889289738E-06   -0.9979998424891612E-10   -0.9504168285712211E-11   -0.7860725959041304E-12    0.2311809431387868E-08
 -0.4074   0.3632    0.3664809178278076E-01    0.2405542324753120E-02   -0.1223835623858225E-04    0.1679388993900127E+00   -0.2255415472902220E+01   -0.1286019500728508E-05   -0.1761411051737216E-09   -0.7784793643050847E-11   -0.7476935737216195E-12    0.2124175769308012E-08
 -0.4165   0.3348    0.3066882622636738E-01    0.3132601791031718E-02   -0.1387282349625989E-04    0.1771321864632442E+00   -0.2932191819426575E+01   -0.1675644918795744E-05   -0.2538280384489777E-09   -0.4635684197618062E-11   -0.6631362126086060E-12    0.1802725534821858E-08
 -0.4258   0.3056    0.2477099825304307E-01    0.3966664766096907E-02   -0.1527867646331850E-04    0.1837502759862856E+00   -0.3707411554529418E+01   -0.2122833071679212E-05   -0.3284124257263432E-09    0.2347341071518017E-12   -0.5652978085635141E-12    0.1399703011915193E-08
 -0.4354   0.2758    0.1929841723554609E-01    0.4890853220608826E-02   -0.1631226870875615E-04    0.1893010402373883E+00   -0.4565067156276382E+01   -0.2618598455183446E-05   -0.3954291234731233E-09    0.6947629971332248E-11   -0.4778816231620908E-12    0.9701725833832255E-09
 -0.4452   0.2455    0.1460060688748012E-01    0.5877892508240620E-02   -0.1684404185660376E-04    0.1947304957150671E+00   -0.5479566553467403E+01   -0.3148359491409354E-05   -0.4503472039729672E-09    0.1536771404575532E-10   -0.3907846268802473E-12    0.5565959282013977E-09
 -0.4550   0.2148    0.1101571608722803E-01    0.6891475752790532E-02   -0.1677238316580817E-04    0.2005527611101748E+00   -0.6417047122791447E+01   -0.3692678192831614E-05   -0.4885236347396127E-09    0.2509070728962115E-10   -0.2961519918187605E-12    0.1843727974112919E-09
 -0.4650   0.1838    0.8844058403503913E-02    0.7889111720155179E-02   -0.1604304466005155E-04    0.2070233801288125E+00   -0.7338051152632014E+01   -0.4228758604622708E-05   -0.5055302877698953E-09    0.3546796190079249E-10   -0.2124689313376393E-12   -0.1348930559266770E-09
 -0.4750   0.1526    0.8317375800124158E-02    0.8825200976607354E-02   -0.1462748094385536E-04    0.2142704889209992E+00   -0.8200378774282303E+01   -0.4732126026934809E-05   -0.4977062685596056E-09    0.4576350409735142E-10   -0.1391387005611477E-12   -0.3989839032075837E-09
 -0.4850   0.1215    0.9569549071604884E-02    0.9653400833152656E-02   -0.1251545641501183E-04    0.2223669932869914E+00   -0.8961285538742123E+01   -0.5177860475002087E-05   -0.4627043435900813E-09    0.5524303237081085E-10   -0.6343536806951988E-13   -0.6096430331045677E-09
 -0.4950   0.0905    0.1261160724297427E-01    0.1032808417479151E-01   -0.9692833304083968E-05    0.2313611463272813E+00   -0.9578820463089158E+01   -0.5541422878403129E-05   -0.4000164505191250E-09    0.6325950874241926E-10   -0.2749189764728044E-13   -0.7710992001169759E-09
 -0.5049   0.0598    0.1731218468237428E-01    0.1080549727722391E-01   -0.6153509768294531E-05    0.2412859008910067E+00   -0.1001291512114496E+02   -0.5799226659129339E-05   -0.3111066976951848E-09    0.6932326934716571E-10   -0.1453698272868564E-14   -0.8874217940352258E-09
 -0.5146   0.0294    0.2338484929281959E-01    0.1104565974489054E-01   -0.1913050762219433E-05    0.2521594789427665E+00   -0.1022712819104740E+02   -0.5929713923631185E-05   -0.1994688468218153E-09    0.7308920135784547E-10   -0.1171805708022333E-13   -0.9629704308261600E-09
 -0.5242  -0.0004    0.3038710026074788E-01    0.1101596152654431E-01    0.2945762878542887E-05    0.2639828253671174E+00   -0.1019197259209816E+02   -0.5915226699516373E-05   -0.7040296731014584E-10    0.7433487159147489E-10   -0.3879709054022129E-13   -0.1002162219529423E-08
 -0.5335  -0.0295    0.3773885869941935E-01    0.1069671962874237E-01    0.8239631780859106E-05    0.2767362977156705E+00   -0.9889972485376456E+01   -0.5745075030703121E-05    0.6932661215930391E-10    0.7301748095045468E-10   -0.8112260863057941E-13   -0.1008958246812020E-08
 -0.5427  -0.0579    0.4476883616148813E-01    0.1008783092333743E-01    0.1365270876006515E-04    0.2903767651663576E+00   -0.9321724627449347E+01   -0.5419050319417934E-05    0.2120107249481418E-09    0.6926281770347487E-10   -0.1038336083780678E-12   -0.9880748875340517E-09
 -0.5515  -0.0854    0.5079119846190097E-01    0.9214417469504103E-02    0.1875560896637645E-04    0.3048358662230485E+00   -0.8510939606488163E+01   -0.4950577866626151E-05    0.3498512382571484E-09    0.6332651070195539E-10   -0.1783989622694548E-12   -0.9441175202740126E-09
 -0.5600  -0.1118    0.5520347825885008E-01    0.8128698693467750E-02    0.2306046117892565E-04    0.3200197712347498E+00   -0.7506066514804696E+01   -0.4367644837610261E-05    0.4757985325176683E-09    0.5576156203446203E-10   -0.2057243264630415E-12   -0.8816483914458884E-09
 -0.5681  -0.1372    0.5758310551232518E-01    0.6905884823833170E-02    0.2612897316606827E-04    0.3358101580400605E+00   -0.6376401774794281E+01   -0.3710722992365868E-05    0.5845888287336898E-09    0.4716638191126776E-10   -0.2348676808594519E-12   -0.8054828436188100E-09
 -0.5759  -0.1612    0.5775373244969981E-01    0.5633921377011412E-02    0.2767490626863773E-04    0.3520653316608738E+00   -0.5202712530699133E+01   -0.3027114977183958E-05    0.6733994750707240E-09    0.3831818196076142E-10   -0.2749744876240356E-12   -0.7206551379951298E-09
 -0.5832  -0.1840    0.5579917937943304E-01    0.4399561111653163E-02    0.2763990898461950E-04    0.3686199027158597E+00   -0.4064481955870382E+01   -0.2363593494560318E-05    0.7419432360156186E-09    0.2987873837234645E-10   -0.2792210906932269E-12   -0.6314327116729856E-09
 -0.5900  -0.2053    0.5202222700818356E-01    0.3275060621167710E-02    0.2618799102946104E-04    0.3852817683565510E+00   -0.3027870466250790E+01   -0.1759042252283353E-05    0.7920249872617191E-09    0.2237610097211018E-10   -0.2968181256335356E-12   -0.5421116906073609E-09
 -0.5964  -0.2250    0.4686597261274730E-01    0.2309510774744149E-02    0.2364320948073899E-04    0.4018267272384084E+00   -0.2137787155148716E+01   -0.1239973328217235E-05    0.8267548520790591E-09    0.1608979616207762E-10   -0.3283762151085057E-12   -0.4551510539990700E-09
 -0.6022  -0.2432    0.4082673585703572E-01    0.1526694828730407E-02    0.2037940679820290E-04    0.4179936140770287E+00   -0.1416036471229307E+01   -0.8191309195358993E-06    0.8495772904626442E-09    0.1108834551954985E-10   -0.3044509089278336E-12   -0.3732819556928613E-09
 -0.6075  -0.2596    0.3438349846118347E-01    0.9285860053492900E-03    0.1672932375333469E-04    0.4334850138140924E+00   -0.8644048909776866E+00   -0.4976595112622159E-06    0.8637004098033252E-09    0.7289120695919138E-11   -0.3213818100533672E-12   -0.2981126595580363E-09
 -0.6122  -0.2743    0.2795637090078257E-01    0.5018129235484088E-03    0.1292301293685276E-04    0.4479784522931610E+00   -0.4706388145902390E+00   -0.2682640602197999E-06    0.8717661315049696E-09    0.4521066680751584E-11   -0.3231442891049596E-12   -0.2303996941149800E-09
 -0.6163  -0.2872    0.2189205195704506E-01    0.2239212597179906E-03    0.9105180753881409E-05    0.4611493101230532E+00   -0.2139600426700459E+00   -0.1190029100806672E-06    0.8758567655864358E-09    0.2615681976569917E-11   -0.3420458360992029E-12   -0.1705360123949173E-09
 -0.6198  -0.2981    0.1646586427391435E-01    0.6733227392565816E-04    0.5403701714819317E-05    0.4727007155774384E+00   -0.6882077884254356E-01   -0.3492962105141424E-07    0.8775615668171755E-09    0.1417282957660859E-11   -0.3456054886719073E-12   -0.1192990827653118E-09
 -0.6228  -0.3072    0.1188624893881366E-01    0.4330342019091163E-06    0.2095582313958074E-05    0.4823907595888908E+00   -0.5683839229317676E-02    0.6956653737694894E-09    0.8782080097857747E-09    0.7815380287379270E-12   -0.3696869199654174E-12   -0.7666859681842997E-10
 -0.6250  -0.3143    0.8292080579689302E-02   -0.1191598072710316E-04   -0.3201816899471908E-06    0.4900471368257999E+00    0.7920294681020767E-02    0.7009257706342322E-08    0.8787677835300593E-09    0.5421704751817913E-12   -0.3694629305728454E-12   -0.4312623261976123E-10
 -0.6267  -0.3193    0.5742763825339464E-02   -0.4626433703833426E-05   -0.1147285583228294E-05    0.4955647251525395E+00    0.3853806659735871E-02    0.2511048757737292E-08    0.8800586325224263E-09    0.4887995390390198E-12   -0.3869062188688321E-12   -0.1917898955969277E-10
 -0.6276  -0.3224    0.4225057750648815E-02   -0.1711311614899664E-06   -0.1712686275442887E-06    0.4988897674579131E+00    0.6452629672275469E-03    0.1460978015425004E-09    0.8818284512974658E-09    0.2747377520796734E-12   -0.2617515579284024E-12   -0.5061104259209553E-11
 -0.6280  -0.3234    0.3718791179612350E-02    0.0000000000000000E+00    0.0000000000000000E+00    0.5000000000000000E+00   -0.8185295389841234E-04    0.0000000000000000E+00    0.0000000000000000E+00    0.0000000000000000E+00    0.0000000000000000E+00    0.0000000000000000E+00
 -0.3190   0.6277    0.2603135175598369E-01    0.0000000000000000E+00    0.0000000000000000E+00   -0.5000000000000000E+00   -0.4278146098424696E-02    0.0000000000000000E+00    0.0000000000000000E+00    0.0000000000000000E+00    0.0000000000000000E+00    0.0000000000000000E+00
 -0.3193   0.6267    0.2653198669968495E-01    0.1479228018776581E-05   -0.5067041393778099E-05   -0.4954269547507796E+00   -0.5463297604413851E-02   -0.2597435387600679E-08    0.1947163623915171E-09   -0.1006747934800475E-11   -0.1363571582035927E-11    0.7086054291081945E-11
 -0.3203   0.6236    0.2800733247890851E-01    0.2131627663277472E-04   -0.2132026697359003E-04   -0.4817297515588245E+00   -0.9324205115677683E-02   -0.4528507674481593E-07    0.1928701660186549E-09   -0.2976265067733408E-11   -0.3297698919491054E-11    0.2959254239223719E-10
 -0.3219   0.6185    0.3038663522268873E-01    0.9506335258298388E-04   -0.3992946998081604E-04   -0.4589885826823473E+00   -0.2109273000965937E-01   -0.2140106714085917E-06    0.1899660879989273E-09   -0.3951355735665185E-11   -0.4001998385461114E-11    0.6657386534408838E-10
 -0.3242   0.6115    0.3356503191868285E-01    0.2454670555903949E-03   -0.4988221544821926E-04   -0.4273869038563357E+00   -0.4821832257709785E-01   -0.5561159746690300E-06    0.1875470369283594E-09   -0.3898015590864112E-11   -0.4120058461065668E-11    0.1189651866601027E-09
 -0.3271   0.6024    0.3738702436758928E-01    0.4595701094562583E-03   -0.4933817017965089E-04   -0.3872899499454928E+00   -0.9077479601671717E-01   -0.1034799612784945E-05    0.1860074524961952E-09   -0.3854479235787522E-11   -0.3973835149828631E-11    0.1888722442333624E-09
 -0.3307   0.5914    0.4162369009456599E-01    0.6985553726419694E-03   -0.4098354889721820E-04   -0.3393535885565085E+00   -0.1419247928957717E+00   -0.1559509269431146E-05    0.1850025133087740E-09   -0.4714836160379932E-11   -0.3759936806346786E-11    0.2790958887610717E-09
 -0.3348   0.5786    0.4597117544828605E-01    0.9179158697671671E-03   -0.2883158580089767E-04   -0.2846468482063289E+00   -0.1924799454543452E+00   -0.2030846575631344E-05    0.1836354991680000E-09   -0.7068332030790714E-11   -0.3540253160072560E-11    0.3959318914392718E-09
 -0.3395   0.5639    0.5006677044145923E-01    0.1086505101312428E-02   -0.1720235451672096E-04   -0.2247547666707629E+00   -0.2356839930383134E+00   -0.2380330029410635E-05    0.1806687646710436E-09   -0.1097054391774321E-10   -0.3397100309388001E-11    0.5476580855479085E-09