 title="result"
 variables="x","y","P","u","v","t","omega","psi","RES1","RES2","RES3","RES4"
zone,j= 49,i= 49,f=point
 -0.4770   0.5220    0.2331051778306505E-01    0.0000000000000000E+00    0.0000000000000000E+00   -0.5000000000000000E+00    0.0000000000000000E+00    0.0000000000000000E+00    0.0000000000000000E+00    0.0000000000000000E+00    0.0000000000000000E+00    0.0000000000000000E+00
 -0.4771   0.5209    0.2384069948549700E-01    0.0000000000000000E+00    0.0000000000000000E+00   -0.4962256428775339E+00   -0.3208151601265869E-03    0.0000000000000000E+00    0.0000000000000000E+00    0.0000000000000000E+00    0.0000000000000000E+00    0.0000000000000000E+00
 -0.4772   0.5177    0.2542277500945159E-01    0.0000000000000000E+00    0.0000000000000000E+00   -0.4849202091113832E+00   -0.4479072460758413E-02    0.0000000000000000E+00    0.0000000000000000E+00    0.0000000000000000E+00    0.0000000000000000E+00    0.0000000000000000E+00
 -0.4774   0.5124    0.2801840696159489E-01    0.0000000000000000E+00    0.0000000000000000E+00   -0.4661451626473168E+00   -0.3545169381492790E-02    0.0000000000000000E+00    0.0000000000000000E+00    0.0000000000000000E+00    0.0000000000000000E+00    0.0000000000000000E+00
 -0.4778   0.5050    0.3149495111648810E-01    0.0000000000000000E+00    0.0000000000000000E+00   -0.4400290409391397E+00    0.2348906256259182E-01    0.0000000000000000E+00    0.0000000000000000E+00    0.0000000000000000E+00    0.0000000000000000E+00    0.0000000000000000E+00
 -0.4782   0.4955    0.3560088082502309E-01    0.0000000000000000E+00    0.0000000000000000E+00   -0.4067967623750998E+00    0.9081900767487310E-01    0.0000000000000000E+00    0.0000000000000000E+00    0.0000000000000000E+00    0.0000000000000000E+00    0.0000000000000000E+00
 -0.4787   0.4840    0.4000812579475400E-01    0.0000000000000000E+00    0.0000000000000000E+00   -0.3667951336171627E+00    0.1973592347435661E+00    0.0000000000000000E+00    0.0000000000000000E+00    0.0000000000000000E+00    0.0000000000000000E+00    0.0000000000000000E+00
 -0.4793   0.4705    0.4435250047837365E-01    0.0000000000000000E+00    0.0000000000000000E+00   -0.3205171612787786E+00    0.3264928416284817E+00    0.0000000000000000E+00    0.0000000000000000E+00    0.0000000000000000E+00    0.0000000000000000E+00    0.0000000000000000E+00
 -0.4800   0.4551    0.4827420163679433E-01    0.0000000000000000E+00    0.0000000000000000E+00   -0.2686463848113464E+00    0.4497187281358478E+00    0.0000000000000000E+00    0.0000000000000000E+00    0.0000000000000000E+00    0.0000000000000000E+00    0.0000000000000000E+00
 -0.4808   0.4378    0.5145004579869100E-01    0.0000000000000000E+00    0.0000000000000000E+00   -0.2121493371256205E+00    0.5331116733806495E+00    0.0000000000000000E+00    0.0000000000000000E+00    0.0000000000000000E+00    0.0000000000000000E+00    0.0000000000000000E+00
 -0.4817   0.4188    0.5361715676341978E-01    0.0000000000000000E+00    0.0000000000000000E+00   -0.1524247240682211E+00    0.5451021844708561E+00    0.0000000000000000E+00    0.0000000000000000E+00    0.0000000000000000E+00    0.0000000000000000E+00    0.0000000000000000E+00
 -0.4826   0.3980    0.5458362257681378E-01    0.0000000000000000E+00    0.0000000000000000E+00   -0.9146684371683426E-01    0.4636474436166320E+00    0.0000000000000000E+00    0.0000000000000000E+00    0.0000000000000000E+00    0.0000000000000000E+00    0.0000000000000000E+00
 -0.4836   0.3757    0.5423141078648286E-01    0.0000000000000000E+00    0.0000000000000000E+00   -0.3192885069019776E-01    0.2797414430476642E+00    0.0000000000000000E+00    0.0000000000000000E+00    0.0000000000000000E+00    0.0000000000000000E+00    0.0000000000000000E+00
 -0.4847   0.3518    0.5251948469136779E-01    0.0000000000000000E+00    0.0000000000000000E+00    0.2307669592258877E-01   -0.4517134769707415E-02    0.0000000000000000E+00    0.0000000000000000E+00    0.0000000000000000E+00    0.0000000000000000E+00    0.0000000000000000E+00
 -0.4858   0.3266    0.4949412837797815E-01    0.0000000000000000E+00    0.0000000000000000E+00    0.7054285757037816E-01   -0.3822133940317531E+00    0.0000000000000000E+00    0.0000000000000000E+00    0.0000000000000000E+00    0.0000000000000000E+00    0.0000000000000000E+00
 -0.4870   0.3000    0.4529934778352902E-01    0.0000000000000000E+00    0.0000000000000000E+00    0.1083811244621151E+00   -0.8481817251537939E+00    0.0000000000000000E+00    0.0000000000000000E+00    0.0000000000000000E+00    0.0000000000000000E+00    0.0000000000000000E+00
 -0.4882   0.2722    0.4017362936367017E-01    0.0000000000000000E+00    0.0000000000000000E+00    0.1360951773746275E+00   -0.1402064487344966E+01    0.0000000000000000E+00    0.0000000000000000E+00    0.0000000000000000E+00    0.0000000000000000E+00    0.0000000000000000E+00
 -0.4895   0.2434    0.3442720204563160E-01    0.0000000000000000E+00    0.0000000000000000E+00    0.1548855680225111E+00   -0.2046843549841078E+01    0.0000000000000000E+00    0.0000000000000000E+00    0.0000000000000000E+00    0.0000000000000000E+00    0.0000000000000000E+00
 -0.4909   0.2136    0.2841210359825768E-01    0.0000000000000000E+00    0.0000000000000000E+00    0.1670834230551786E+00   -0.2784353126202510E+01    0.0000000000000000E+00    0.0000000000000000E+00    0.0000000000000000E+00    0.0000000000000000E+00    0.0000000000000000E+00
 -0.4923   0.1830    0.2249987976946750E-01    0.0000000000000000E+00    0.0000000000000000E+00    0.1752628799846396E+00   -0.3609833325874016E+01    0.0000000000000000E+00    0.0000000000000000E+00    0.0000000000000000E+00    0.0000000000000000E+00    0.0000000000000000E+00
 -0.4937   0.1518    0.1706921010818539E-01    0.0000000000000000E+00    0.0000000000000000E+00    0.1815364724405688E+00   -0.4507605298462105E+01    0.0000000000000000E+00    0.0000000000000000E+00    0.0000000000000000E+00    0.0000000000000000E+00    0.0000000000000000E+00
 -0.4951   0.1199    0.1249300478436850E-01    0.0000000000000000E+00    0.0000000000000000E+00    0.1872940334363267E+00   -0.5449491007870487E+01    0.0000000000000000E+00    0.0000000000000000E+00    0.0000000000000000E+00    0.0000000000000000E+00    0.0000000000000000E+00
 -0.4966   0.0877    0.9115946537205738E-02    0.0000000000000000E+00    0.0000000000000000E+00    0.1933020512144183E+00   -0.6396402407851306E+01    0.0000000000000000E+00    0.0000000000000000E+00    0.0000000000000000E+00    0.0000000000000000E+00    0.0000000000000000E+00
 -0.4980   0.0552    0.7221650394251199E-02    0.0000000000000000E+00    0.0000000000000000E+00    0.1999338457020367E+00   -0.7302031909568948E+01    0.0000000000000000E+00    0.0000000000000000E+00    0.0000000000000000E+00    0.0000000000000000E+00    0.0000000000000000E+00
 -0.4995   0.0225    0.6996020326959805E-02    0.0000000000000000E+00    0.0000000000000000E+00    0.2073646667481621E+00   -0.8117083709704239E+01    0.0000000000000000E+00    0.0000000000000000E+00    0.0000000000000000E+00    0.0000000000000000E+00    0.0000000000000000E+00
 -0.5010  -0.0102    0.8494242467440826E-02    0.0000000000000000E+00    0.0000000000000000E+00    0.2156842202746206E+00   -0.8792930787729389E+01    0.0000000000000000E+00    0.0000000000000000E+00    0.0000000000000000E+00    0.0000000000000000E+00    0.0000000000000000E+00
 -0.5024  -0.0427    0.1161696786342462E-01    0.0000000000000000E+00    0.0000000000000000E+00    0.2249458553159022E+00   -0.9284553400215234E+01    0.0000000000000000E+00    0.0000000000000000E+00    0.0000000000000000E+00    0.0000000000000000E+00    0.0000000000000000E+00
 -0.5039  -0.0750    0.1609897049264201E-01    0.0000000000000000E+00    0.0000000000000000E+00    0.2351826740680018E+00   -0.9553315219445601E+01    0.0000000000000000E+00    0.0000000000000000E+00    0.0000000000000000E+00    0.0000000000000000E+00    0.0000000000000000E+00
 -0.5053  -0.1068    0.2151407358797473E-01    0.0000000000000000E+00    0.0000000000000000E+00    0.2464101313728022E+00   -0.9570359119326694E+01    0.0000000000000000E+00    0.0000000000000000E+00    0.0000000000000000E+00    0.0000000000000000E+00    0.0000000000000000E+00
 -0.5067  -0.1381    0.2730111745366320E-01    0.0000000000000000E+00    0.0000000000000000E+00    0.2586241853863347E+00   -0.9320922916232758E+01    0.0000000000000000E+00    0.0000000000000000E+00    0.0000000000000000E+00    0.0000000000000000E+00    0.0000000000000000E+00
 -0.5081  -0.1687    0.3281537765864528E-01    0.0000000000000000E+00    0.0000000000000000E+00    0.2717986315124434E+00   -0.8809017331710562E+01    0.0000000000000000E+00    0.0000000000000000E+00    0.0000000000000000E+00    0.0000000000000000E+00    0.0000000000000000E+00
 -0.5094  -0.1984    0.3740467042399626E-01    0.0000000000000000E+00    0.0000000000000000E+00    0.2858831283273311E+00   -0.8060923327610118E+01    0.0000000000000000E+00    0.0000000000000000E+00    0.0000000000000000E+00    0.0000000000000000E+00    0.0000000000000000E+00
 -0.5107  -0.2273    0.4050027591916718E-01    0.0000000000000000E+00    0.0000000000000000E+00    0.3008025281603148E+00   -0.7125538030983062E+01    0.0000000000000000E+00    0.0000000000000000E+00    0.0000000000000000E+00    0.0000000000000000E+00    0.0000000000000000E+00
 -0.5120  -0.2550    0.4170282762998764E-01    0.0000000000000000E+00    0.0000000000000000E+00    0.3164574204752329E+00   -0.6070068799218326E+01    0.0000000000000000E+00    0.0000000000000000E+00    0.0000000000000000E+00    0.0000000000000000E+00    0.0000000000000000E+00
 -0.5132  -0.2816    0.4083945861967370E-01    0.0000000000000000E+00    0.0000000000000000E+00    0.3327250405234750E+00   -0.4971144969028694E+01    0.0000000000000000E+00    0.0000000000000000E+00    0.0000000000000000E+00    0.0000000000000000E+00    0.0000000000000000E+00
 -0.5143  -0.3068    0.3797492506699440E-01    0.0000000000000000E+00    0.0000000000000000E+00    0.3494591148765908E+00   -0.3903335791437281E+01    0.0000000000000000E+00    0.0000000000000000E+00    0.0000000000000000E+00    0.0000000000000000E+00    0.0000000000000000E+00
 -0.5154  -0.3307    0.3337515821587227E-01    0.0000000000000000E+00    0.0000000000000000E+00    0.3664872900957202E+00   -0.2928377984834357E+01    0.0000000000000000E+00    0.0000000000000000E+00    0.0000000000000000E+00    0.0000000000000000E+00    0.0000000000000000E+00
 -0.5164  -0.3530    0.2743844090675570E-01    0.0000000000000000E+00    0.0000000000000000E+00    0.3836059415578856E+00   -0.2088170794275281E+01    0.0000000000000000E+00    0.0000000000000000E+00    0.0000000000000000E+00    0.0000000000000000E+00    0.0000000000000000E+00
 -0.5173  -0.3738    0.2061829086967194E-01    0.0000000000000000E+00    0.0000000000000000E+00    0.4005743099292882E+00   -0.1403010047615350E+01    0.0000000000000000E+00    0.0000000000000000E+00    0.0000000000000000E+00    0.0000000000000000E+00    0.0000000000000000E+00
 -0.5182  -0.3928    0.1335955901804713E-01    0.0000000000000000E+00    0.0000000000000000E+00    0.4171121251982297E+00   -0.8744502302946948E+00    0.0000000000000000E+00    0.0000000000000000E+00    0.0000000000000000E+00    0.0000000000000000E+00    0.0000000000000000E+00
 -0.5190  -0.4101    0.6058709231664675E-02    0.0000000000000000E+00    0.0000000000000000E+00    0.4329055560114911E+00   -0.4907738323176893E+00    0.0000000000000000E+00    0.0000000000000000E+00    0.0000000000000000E+00    0.0000000000000000E+00    0.0000000000000000E+00
 -0.5197  -0.4255   -0.9519000969315980E-03    0.0000000000000000E+00    0.0000000000000000E+00    0.4476241930013955E+00   -0.2327138824647874E+00    0.0000000000000000E+00    0.0000000000000000E+00    0.0000000000000000E+00    0.0000000000000000E+00    0.0000000000000000E+00
 -0.5203  -0.4390   -0.7403673235982212E-02    0.0000000000000000E+00    0.0000000000000000E+00    0.4609471516546552E+00   -0.7764415987542000E-01    0.0000000000000000E+00    0.0000000000000000E+00    0.0000000000000000E+00    0.0000000000000000E+00    0.0000000000000000E+00
 -0.5208  -0.4505   -0.1308512117430231E-01    0.0000000000000000E+00    0.0000000000000000E+00    0.4725914905367438E+00   -0.1576164105486885E-02    0.0000000000000000E+00    0.0000000000000000E+00    0.0000000000000000E+00    0.0000000000000000E+00    0.0000000000000000E+00
 -0.5212  -0.4600   -0.1783810386674711E-01    0.0000000000000000E+00    0.0000000000000000E+00    0.4823339365501695E+00    0.2060058656026228E-01    0.0000000000000000E+00    0.0000000000000000E+00    0.0000000000000000E+00    0.0000000000000000E+00    0.0000000000000000E+00
 -0.5216  -0.4674   -0.2155982486328261E-01    0.0000000000000000E+00    0.0000000000000000E+00    0.4900190826841038E+00    0.1453486073824612E-01    0.0000000000000000E+00    0.0000000000000000E+00    0.0000000000000000E+00    0.0000000000000000E+00    0.0000000000000000E+00
 -0.5218  -0.4727   -0.2420814698768026E-01    0.0000000000000000E+00    0.0000000000000000E+00    0.4955529361267253E+00    0.3507345706892203E-02    0.0000000000000000E+00    0.0000000000000000E+00    0.0000000000000000E+00    0.0000000000000000E+00    0.0000000000000000E+00
 -0.5219  -0.4759   -0.2579493396982364E-01    0.0000000000000000E+00    0.0000000000000000E+00    0.4988868584785667E+00   -0.1472181928472948E-03    0.0000000000000000E+00    0.0000000000000000E+00    0.0000000000000000E+00    0.0000000000000000E+00    0.0000000000000000E+00
 -0.5220  -0.4770   -0.2632721447413783E-01    0.0000000000000000E+00    0.0000000000000000E+00    0.5000000000000000E+00    0.0000000000000000E+00    0.0000000000000000E+00    0.0000000000000000E+00    0.0000000000000000E+00    0.0000000000000000E+00    0.0000000000000000E+00
 -0.4759   0.5219    0.2333712045049163E-01    0.0000000000000000E+00    0.0000000000000000E+00   -0.5000000000000000E+00   -0.3208650258421110E-03    0.0000000000000000E+00    0.0000000000000000E+00    0.0000000000000000E+00    0.0000000000000000E+00    0.0000000000000000E+00
 -0.4760   0.5209    0.2386721205144583E-01    0.3290061181847983E-06   -0.3290572103821579E-06   -0.4962255687641784E+00   -0.5427488948357518E-03   -0.2325142923599913E-09    0.5684350086986034E-09    0.3398091270173653E-12    0.3581831012344772E-12   -0.6785324418220190E-11
 -0.4761   0.5177    0.2544761267170559E-01    0.3369561889565619E-05   -0.5358325482640044E-06   -0.4849199149964374E+00   -0.1791597729263837E-02   -0.2007711050546618E-08    0.5708515173150769E-09    0.6818486747439678E-12    0.5157130148272793E-12   -0.2601846038965960E-10
 -0.4764   0.5123    0.2803583137380621E-01    0.7877778870309121E-06    0.1003679370251683E-05   -0.4661445209476269E+00    0.2198001904589381E-02   -0.9725524770025330E-09    0.5733358607751954E-09    0.7300340887361756E-12    0.4791713900664796E-12   -0.5817885843223403E-10
 -0.4767   0.5049    0.3150101929820374E-01   -0.2795832115572635E-04    0.3049854196120744E-05   -0.4400279707111237E+00    0.2879990488209657E-01    0.1450173864608781E-07    0.5757505297174226E-09    0.6335921370892450E-12    0.5402744224225486E-12   -0.1042359133035520E-09
 -0.4771   0.4954    0.3559724732129815E-01   -0.9796334834321484E-04    0.4729364697853005E-05   -0.4067952324974229E+00    0.9223606193571338E-01    0.5229598845399468E-07    0.5785648123785014E-09    0.3277209233154554E-12    0.5315539675088132E-12   -0.1643566324704970E-09
 -0.4776   0.4839    0.3999887418406672E-01   -0.2086544415719318E-03    0.5459648733956921E-05   -0.3667931236446006E+00    0.1924413124389314E+00    0.1121708406116788E-06    0.5817690756221294E-09   -0.2288065570343889E-12    0.5185088469694676E-12   -0.2400042994205043E-09
 -0.4783   0.4704    0.4434276198973335E-01   -0.3429594508033702E-03    0.5116138943681039E-05   -0.3205145982501717E+00    0.3142032357060978E+00    0.1847330979973680E-06    0.5854989167108915E-09   -0.1046624592548895E-11    0.5295035243602086E-12   -0.3343081159123962E-09
 -0.4789   0.4550    0.4826871647998823E-01   -0.4710759687661539E-03    0.3738910264835112E-05   -0.2686430893893230E+00    0.4303032266885857E+00    0.2540051946753036E-06    0.5898685402974668E-09   -0.2133765386602704E-11    0.5438913208699603E-12   -0.4491990147903469E-09
 -0.4797   0.4378    0.5145243998224849E-01   -0.5572602782511613E-03    0.1601334764551452E-05   -0.2121450132459931E+00    0.5079203163169685E+00    0.3006706575462664E-06    0.5952175514620239E-09   -0.3508839052646096E-11    0.5519361009898027E-12   -0.5849303055804889E-09
 -0.4806   0.4187    0.5362928025321707E-01   -0.5680683143851045E-03   -0.9514205629815176E-06   -0.1524190199725033E+00    0.5161180230396513E+00    0.3068316987898600E-06    0.6019064584857764E-09   -0.5189140783734558E-11    0.5550438580970152E-12   -0.7368935531215648E-09
 -0.4815   0.3980    0.5460554924671594E-01   -0.4799541386816286E-03   -0.3517876207683337E-05   -0.9145949937515560E-01    0.4329664848042095E+00    0.2598193675072710E-06    0.6103105989335722E-09   -0.7174205673976530E-11    0.5512222622794383E-12   -0.8890780750503424E-09
 -0.4825   0.3756    0.5426185859878388E-01   -0.2830642607326508E-03   -0.5817495740356539E-05   -0.3191990844816528E-01    0.2490451812417461E+00    0.1544437922146734E-06    0.6204613524352087E-09   -0.9416592505750998E-11    0.5016091708665016E-12   -0.1009347411207173E-08
 -0.4836   0.3518    0.5255676975944265E-01    0.2068995675617379E-04   -0.7724377086014594E-05    0.2308671368390842E-01   -0.3416464140224343E-01   -0.8252841796025876E-08    0.6315781942572984E-09   -0.1183812770033654E-10    0.4759179161872851E-12   -0.1050443163008730E-08
 -0.4847   0.3265    0.4953698607254854E-01    0.4241687894783022E-03   -0.9308558487001718E-05    0.7055295730812253E-01   -0.4102509482569214E+00   -0.2243677643318916E-06    0.6414942847754457E-09   -0.1434524721233288E-10    0.4402381237333941E-12   -0.9601032607831073E-09
 -0.4859   0.2999    0.4534738131738419E-01    0.9219093679273767E-03   -0.1071467821568722E-04    0.1083901275761862E+00   -0.8741655094837181E+00   -0.4909946346160621E-06    0.6465360434526612E-09   -0.1683962691512164E-10    0.3937128401076961E-12   -0.7025932197146645E-09
 -0.4872   0.2722    0.4022711647426313E-01    0.1513380421401763E-02   -0.1208465838476999E-04    0.1361021700300621E+00   -0.1425279261765746E+01   -0.8078495896673544E-06    0.6420837819764991E-09   -0.1922553782840453E-10    0.3041664142777734E-12   -0.2802199305929065E-09
 -0.4885   0.2434    0.3448661943115300E-01    0.2201461535663370E-02   -0.1346215246661776E-04    0.1548902310768187E+00   -0.2065983147631771E+01   -0.1176551831520274E-05    0.6237900855576850E-09   -0.2140180394016866E-10    0.1830063878216492E-12    0.2609330078395811E-09
 -0.4898   0.2136    0.2847751913244634E-01    0.2987703965990015E-02   -0.1479540385312859E-04    0.1670860315368300E+00   -0.2797344468498742E+01   -0.1597985702347654E-05    0.5887360633727301E-09   -0.2324834769140693E-10    0.7013833958069426E-13    0.8473047125034938E-09
 -0.4912   0.1830    0.2257052673277948E-01    0.3866587840216057E-02   -0.1593434236911665E-04    0.1752640266843124E+00   -0.3613806266175639E+01   -0.2069288882258676E-05    0.5359777066615834E-09   -0.2459221715156445E-10   -0.3222422328974517E-13    0.1405729462521099E-08
 -0.4926   0.1517    0.1714326302839330E-01    0.4820999685488489E-02   -0.1669178697811054E-04    0.1815367512520230E+00   -0.4499078588540407E+01   -0.2581345302635760E-05    0.4664311090141204E-09   -0.2515818456338970E-10   -0.1548067229961703E-12    0.1885021552912314E-08
 -0.4940   0.1199    0.1256768418833016E-01    0.5820643382929491E-02   -0.1688259000813666E-04    0.1872938646934062E+00   -0.5424737797367198E+01   -0.3117973979646986E-05    0.3826149119756650E-09   -0.2460590065034296E-10   -0.2611799665430681E-12    0.2263306488189606E-08
 -0.4955   0.0876    0.9187774947831183E-02    0.6823797332831857E-02   -0.1637753901409976E-04    0.1933016654105641E+00   -0.6351929389204201E+01   -0.3656810390295103E-05    0.2883762811878299E-09   -0.2262512399653360E-10   -0.3645417301356702E-12    0.2540331302518933E-08
 -0.4970   0.0551    0.7286801753790425E-02    0.7781271402495717E-02   -0.1510438331673976E-04    0.1999333438827528E+00   -0.7235062561651871E+01   -0.4171464601180402E-05    0.1886661001038181E-09   -0.1907340951845526E-10   -0.4166944567174369E-12    0.2727738868113505E-08
 -0.4984   0.0224    0.7050572359709678E-02    0.8640903349624725E-02   -0.1304867733811960E-04    0.2073640838855058E+00   -0.8025983831740840E+01   -0.4633900164306840E-05    0.8905788606572429E-10   -0.1403402394295483E-10   -0.4325220737122493E-12    0.2840101863757494E-08
 -0.4999  -0.0102    0.8534378827661922E-02    0.9351427771004343E-02   -0.1022795616908319E-04    0.2156835646149433E+00   -0.8677545387536290E+01   -0.5016540037178846E-05   -0.4841013007128581E-11   -0.7809808355574432E-11   -0.3917491331328904E-12    0.2891245695114952E-08
 -0.5014  -0.0428    0.1163909785944085E-01    0.9865571164856738E-02   -0.6691013108075858E-05    0.2249451267479426E+00   -0.9146449570466222E+01   -0.5293912434699217E-05   -0.8800041251255664E-10   -0.8732459200189169E-12   -0.3498243361654829E-12    0.2891946411509583E-08
 -0.5028  -0.0750    0.1609991881244008E-01    0.1014296904914245E-01   -0.2518022008738699E-05    0.2351818712620328E+00   -0.9395924166073838E+01   -0.5444235243109876E-05   -0.1565242787812671E-09    0.6212141911987601E-11   -0.2266190707311821E-12    0.2851585878017870E-08
 -0.5042  -0.1068    0.2149133804291383E-01    0.1015372052593856E-01    0.2152564438254550E-05    0.2464092542493950E+00   -0.9398963888333629E+01   -0.5451326768055774E-05   -0.2082633787647836E-09    0.1282868256069492E-10   -0.7939829349545846E-13    0.2776904987206175E-08
 -0.5057  -0.1381    0.2725328202470632E-01    0.9882889016040605E-02    0.7104479374994957E-05    0.2586232357393929E+00   -0.9142428718813845E+01   -0.5307035489622315E-05   -0.2430492786198446E-09    0.1838712515578322E-10    0.1095651347426951E-12    0.2673168578853913E-08
 -0.5070  -0.1687    0.3274254564967526E-01    0.9335349651624905E-02    0.1202838629224981E-04    0.2717976126607646E+00   -0.8631413807410544E+01   -0.5013871304623772E-05   -0.2627857965953329E-09    0.2237721119513481E-10    0.3234149059672120E-12    0.2544846215701835E-08
 -0.5084  -0.1985    0.3730884617773352E-01    0.8539369686908188E-02    0.1654224779467598E-04    0.2858820440307386E+00   -0.7892451376222476E+01   -0.4586935364376869E-05   -0.2711705061886338E-09    0.2444744406915333E-10    0.4941047571094259E-12    0.2395987370312769E-08
 -0.5097  -0.2273    0.4038544479164054E-01    0.7546871231984476E-02    0.2024322248947961E-04    0.3008013810681596E+00   -0.6973642148226694E+01   -0.4054104048417453E-05   -0.2729928713640639E-09    0.2449512814806099E-10    0.7439188154378940E-12    0.2230155593183070E-08
 -0.5109  -0.2551    0.4157467724988635E-01    0.6428839195348631E-02    0.2278867743342642E-04    0.3164562106856749E+00   -0.5940398406450124E+01   -0.3453534188832246E-05   -0.2732390494419867E-09    0.2264116671923944E-10    0.8760908665195188E-12    0.2050234162997988E-08
 -0.5121  -0.2816    0.4070466386200345E-01    0.5265971760790525E-02    0.2397755838114784E-04    0.3327237651792381E+00   -0.4866845483971756E+01   -0.2828673110789975E-05   -0.2760104714227829E-09    0.1930783311010487E-10    0.1014022199541387E-11    0.1860330325550996E-08
 -0.5133  -0.3069    0.3784023752179390E-01    0.4136665056110701E-02    0.2379643113675446E-04    0.3494577698169450E+00   -0.3824880749526130E+01   -0.2221721736009181E-05   -0.2836877607825805E-09    0.1507485802854092E-10    0.1124225712523241E-11    0.1662993739243168E-08
 -0.5143  -0.3308    0.3324648269488166E-01    0.3105769332463028E-02    0.2241729802661834E-04    0.3664858741706868E+00   -0.2873911733928330E+01   -0.1667634973810766E-05   -0.2968156553873058E-09    0.1058486631677624E-10    0.1147693051706256E-11    0.1462862039836033E-08
 -0.5153  -0.3531    0.2732024018285954E-01    0.2217291301096626E-02    0.2013458953837704E-04    0.3836044631497104E+00   -0.2054262691415802E+01   -0.1190092828069595E-05   -0.3142169094361158E-09    0.6419323406170463E-11    0.1163541485382780E-11    0.1263656443373229E-08
 -0.5163  -0.3738    0.2051335476366363E-01    0.1492561934749563E-02    0.1728958730744621E-04    0.4005727937644791E+00   -0.1385475642879389E+01   -0.8006162741728560E-06   -0.3338250856299574E-09    0.2972330714889893E-11    0.1159766727099054E-11    0.1068845135662744E-08
 -0.5171  -0.3929    0.1326920913739297E-01    0.9332280189474029E-03    0.1418134787540016E-04    0.4171106163475772E+00   -0.8690888914825325E+00   -0.5000498750655226E-06   -0.3533685705159328E-09    0.4375562412395340E-12    0.1143626859878566E-11    0.8825937897194436E-09
 -0.5179  -0.4101    0.5983179965225691E-02    0.5269617423879471E-03    0.1103458207933175E-04    0.4329041179792427E+00   -0.4937701477902096E+00   -0.2818063105900237E-06   -0.3710219596830822E-09   -0.1179046443811060E-11    0.1123254267376694E-11    0.7084175711324914E-09
 -0.5186  -0.4255   -0.1012995285027493E-02    0.2534264889067555E-03    0.7973654208414238E-05    0.4476228984786699E+00   -0.2408197506926161E+00   -0.1348862966414602E-06   -0.3856108123784230E-09   -0.2007529559255872E-11    0.1090488810362444E-11    0.5493358129493586E-09
 -0.5192  -0.4390   -0.7451125582279954E-02    0.8865013874744592E-04    0.5087668481073156E-05    0.4609460674220637E+00   -0.8804540830407062E-01   -0.4649283509158050E-07   -0.3967974941676555E-09   -0.2254470915508122E-11    0.1079202699427739E-11    0.4071189409898812E-09
 -0.5197  -0.4505   -0.1312021411629527E-01    0.7108730432780718E-05    0.2464056285007633E-05    0.4725906609079273E+00   -0.1179580187621877E-01   -0.2833280423203310E-08   -0.4047702702528189E-09   -0.2151102213021616E-11    0.1056833440205018E-11    0.2846877499365630E-09
 -0.5201  -0.4600   -0.1786315938660940E-01   -0.1791582938298704E-04    0.3444441341488165E-06    0.4823333712901274E+00    0.1281281958678545E-01    0.1028857917139738E-07   -0.4104074310213798E-09   -0.1904584129297504E-11    0.1060962515758712E-11    0.1831850903605270E-09
 -0.5205  -0.4675   -0.2157909531308157E-01   -0.1357246749691620E-04   -0.9479441575734138E-06    0.4900187544323694E+00    0.1073594841400258E-01    0.7660750627759730E-08   -0.4146459902862332E-09   -0.1658805037774158E-11    0.1015728733760879E-11    0.1030716388975006E-09
 -0.5207  -0.4728   -0.2422808042116431E-01   -0.3698803966767327E-05   -0.1019874581953924E-05    0.4955527886946170E+00    0.3514179641558590E-02    0.1944459970518475E-08   -0.4192931958666574E-09   -0.1429675388492369E-11    0.1091677529624357E-11    0.4605373027377624E-10
 -0.5209  -0.4760   -0.2581713689714365E-01   -0.8472166286179178E-07   -0.8501955328599977E-07    0.4988868215562697E+00    0.4804399555520943E-03    0.7491808585496057E-10   -0.4242692742267851E-09   -0.7518205892911856E-12    0.7422664913270260E-12    0.1156589833129808E-10
 -0.5209  -0.4771   -0.2634944498948016E-01    0.0000000000000000E+00    0.0000000000000000E+00    0.5000000000000000E+00   -0.1466350042996443E-03    0.0000000000000000E+00    0.0000000000000000E+00    0.0000000000000000E+00    0.0000000000000000E+00    0.0000000000000000E+00
 -0.4727   0.5218    0.2339886382286031E-01    0.0000000000000000E+00    0.0000000000000000E+00   -0.5000000000000000E+00   -0.4479361513653617E-02    0.0000000000000000E+00    0.0000000000000000E+00    0.0000000000000000E+00    0.0000000000000000E+00    0.0000000000000000E+00
 -0.4728   0.5207    0.2393008399744728E-01    0.5358295926877385E-06   -0.3369818081792774E-05   -0.4962244597915558E+00   -0.1791813393201799E-02   -0.2007869503092343E-08    0.5707424387702692E-09    0.5022347013099171E-12    0.6465881432701770E-12   -0.6633876933025140E-11
 -0.4729   0.5175    0.2550966468728869E-01    0.1463707439828635E-05   -0.1462823826663100E-05   -0.4849155127525563E+00    0.4897283744104917E-02   -0.1344375300795555E-07    0.5716645702820433E-09    0.1576135055803007E-11    0.1554307030304791E-11   -0.2573235027836240E-10
 -0.4732   0.5122    0.2808414108889874E-01   -0.2344280222925781E-04    0.1800077199905040E-04   -0.4661348677195072E+00    0.1611353765367133E-01    0.2676710907950101E-07    0.5734396846257539E-09    0.2199492324383989E-11    0.1939585644872288E-11   -0.5839998710316374E-10
 -0.4735   0.5048    0.3152348507245013E-01   -0.1375346941568784E-03    0.4678606916599479E-04   -0.4400116614121586E+00    0.4192325277279539E-01    0.2713671378910673E-06    0.5756569977644066E-09    0.2044375953247357E-11    0.2145734978586944E-11   -0.1039871201299891E-09
 -0.4739   0.4953    0.3559458062485679E-01   -0.3958816536161944E-03    0.7114767888905256E-04   -0.4067714851870192E+00    0.9475770986459379E-01    0.8434390579881215E-06    0.5783075338050558E-09    0.1014206513910709E-11    0.2317167291376876E-11   -0.1641404737823260E-09
 -0.4744   0.4838    0.3998054438754013E-01   -0.8011949917389133E-03    0.8232514233202545E-04   -0.3667613232971821E+00    0.1771585722515192E+00    0.1744798092126542E-05    0.5814246445412508E-09   -0.1002264243821216E-11    0.2451368968925394E-11   -0.2400855278472669E-09
 -0.4750   0.4703    0.4432217956108037E-01   -0.1293274581838734E-02    0.7708541755573253E-04   -0.3204734949296484E+00    0.2776956114571134E+00    0.2838987379674839E-05    0.5850536860529942E-09   -0.4040105056057897E-11    0.2553630917834226E-11   -0.3342446701359858E-09
 -0.4757   0.4549    0.4825908225543614E-01   -0.1761345719192816E-02    0.5612667709363105E-04   -0.2685901030227565E+00    0.3730582983626760E+00    0.3881439310687432E-05    0.5893848881166619E-09   -0.8146698593503032E-11    0.2648313859876517E-11   -0.4492875724237955E-09