 title="result"
 variables="x","y","P","u","v","t","omega","psi","RES1","RES2","RES3","RES4"
zone,j= 49,i= 49,f=point
 -0.4430   0.5512    0.2431470307857324E-01    0.0000000000000000E+00    0.0000000000000000E+00   -0.5000000000000000E+00    0.0000000000000000E+00    0.0000000000000000E+00    0.0000000000000000E+00    0.0000000000000000E+00    0.0000000000000000E+00    0.0000000000000000E+00
 -0.4431   0.5501    0.2484258499443553E-01    0.0000000000000000E+00    0.0000000000000000E+00   -0.4960223165794888E+00   -0.2290531874418650E-03    0.0000000000000000E+00    0.0000000000000000E+00    0.0000000000000000E+00    0.0000000000000000E+00    0.0000000000000000E+00
 -0.4434   0.5469    0.2641112980387467E-01    0.0000000000000000E+00    0.0000000000000000E+00   -0.4841079753973869E+00   -0.4329662498656098E-02    0.0000000000000000E+00    0.0000000000000000E+00    0.0000000000000000E+00    0.0000000000000000E+00    0.0000000000000000E+00
 -0.4440   0.5416    0.2897307765860692E-01    0.0000000000000000E+00    0.0000000000000000E+00   -0.4643229326346099E+00   -0.7846916210362412E-02    0.0000000000000000E+00    0.0000000000000000E+00    0.0000000000000000E+00    0.0000000000000000E+00    0.0000000000000000E+00
 -0.4448   0.5342    0.3240209024523591E-01    0.0000000000000000E+00    0.0000000000000000E+00   -0.4368081930055301E+00    0.4443747595312798E-02    0.0000000000000000E+00    0.0000000000000000E+00    0.0000000000000000E+00    0.0000000000000000E+00    0.0000000000000000E+00
 -0.4458   0.5248    0.3646544099471333E-01    0.0000000000000000E+00    0.0000000000000000E+00   -0.4018192393625626E+00    0.4436028972619301E-01    0.0000000000000000E+00    0.0000000000000000E+00    0.0000000000000000E+00    0.0000000000000000E+00    0.0000000000000000E+00
 -0.4471   0.5133    0.4085436616681160E-01    0.0000000000000000E+00    0.0000000000000000E+00   -0.3597692269972680E+00    0.1127356863470883E+00    0.0000000000000000E+00    0.0000000000000000E+00    0.0000000000000000E+00    0.0000000000000000E+00    0.0000000000000000E+00
 -0.4485   0.4999    0.4521675310704670E-01    0.0000000000000000E+00    0.0000000000000000E+00   -0.3112763147711865E+00    0.1986381772512787E+00    0.0000000000000000E+00    0.0000000000000000E+00    0.0000000000000000E+00    0.0000000000000000E+00    0.0000000000000000E+00
 -0.4502   0.4846    0.4919138860291541E-01    0.0000000000000000E+00    0.0000000000000000E+00   -0.2572273348916870E+00    0.2816299847086261E+00    0.0000000000000000E+00    0.0000000000000000E+00    0.0000000000000000E+00    0.0000000000000000E+00    0.0000000000000000E+00
 -0.4521   0.4674    0.5243865999434275E-01    0.0000000000000000E+00    0.0000000000000000E+00   -0.1988707331926349E+00    0.3359802213130905E+00    0.0000000000000000E+00    0.0000000000000000E+00    0.0000000000000000E+00    0.0000000000000000E+00    0.0000000000000000E+00
 -0.4541   0.4484    0.5466861180465284E-01    0.0000000000000000E+00    0.0000000000000000E+00   -0.1379304214040802E+00    0.3357254287443451E+00    0.0000000000000000E+00    0.0000000000000000E+00    0.0000000000000000E+00    0.0000000000000000E+00    0.0000000000000000E+00
 -0.4564   0.4278    0.5566293165299677E-01    0.0000000000000000E+00    0.0000000000000000E+00   -0.7668892108100120E-01    0.2597646823706307E+00    0.0000000000000000E+00    0.0000000000000000E+00    0.0000000000000000E+00    0.0000000000000000E+00    0.0000000000000000E+00
 -0.4588   0.4056    0.5529058107959973E-01    0.0000000000000000E+00    0.0000000000000000E+00   -0.1793911048122829E-01    0.9526037347904664E-01    0.0000000000000000E+00    0.0000000000000000E+00    0.0000000000000000E+00    0.0000000000000000E+00    0.0000000000000000E+00
 -0.4614   0.3818    0.5351699945346767E-01    0.0000000000000000E+00    0.0000000000000000E+00    0.3531008281934080E-01   -0.1622250752108441E+00    0.0000000000000000E+00    0.0000000000000000E+00    0.0000000000000000E+00    0.0000000000000000E+00    0.0000000000000000E+00
 -0.4641   0.3567    0.5040868893168162E-01    0.0000000000000000E+00    0.0000000000000000E+00    0.8040875736562830E-01   -0.5121107246954447E+00    0.0000000000000000E+00    0.0000000000000000E+00    0.0000000000000000E+00    0.0000000000000000E+00    0.0000000000000000E+00
 -0.4670   0.3302    0.4613063152639607E-01    0.0000000000000000E+00    0.0000000000000000E+00    0.1157665161278899E+00   -0.9535022386910865E+00    0.0000000000000000E+00    0.0000000000000000E+00    0.0000000000000000E+00    0.0000000000000000E+00    0.0000000000000000E+00
 -0.4700   0.3026    0.4093267281430719E-01    0.0000000000000000E+00    0.0000000000000000E+00    0.1413363961244161E+00   -0.1488096670578869E+01    0.0000000000000000E+00    0.0000000000000000E+00    0.0000000000000000E+00    0.0000000000000000E+00    0.0000000000000000E+00
 -0.4731   0.2739    0.3512532304414354E-01    0.0000000000000000E+00    0.0000000000000000E+00    0.1585646057854281E+00   -0.2119466327306452E+01    0.0000000000000000E+00    0.0000000000000000E+00    0.0000000000000000E+00    0.0000000000000000E+00    0.0000000000000000E+00
 -0.4764   0.2443    0.2905467646234620E-01    0.0000000000000000E+00    0.0000000000000000E+00    0.1697931667582263E+00   -0.2849271099994228E+01    0.0000000000000000E+00    0.0000000000000000E+00    0.0000000000000000E+00    0.0000000000000000E+00    0.0000000000000000E+00
 -0.4797   0.2139    0.2308557017375569E-01    0.0000000000000000E+00    0.0000000000000000E+00    0.1774558428043706E+00   -0.3672304172969063E+01    0.0000000000000000E+00    0.0000000000000000E+00    0.0000000000000000E+00    0.0000000000000000E+00    0.0000000000000000E+00
 -0.4831   0.1827    0.1759228923815653E-01    0.0000000000000000E+00    0.0000000000000000E+00    0.1834884510710246E+00   -0.4572591631387247E+01    0.0000000000000000E+00    0.0000000000000000E+00    0.0000000000000000E+00    0.0000000000000000E+00    0.0000000000000000E+00
 -0.4865   0.1511    0.1294700930756919E-01    0.0000000000000000E+00    0.0000000000000000E+00    0.1891418501829772E+00   -0.5522103941007400E+01    0.0000000000000000E+00    0.0000000000000000E+00    0.0000000000000000E+00    0.0000000000000000E+00    0.0000000000000000E+00
 -0.4900   0.1190    0.9498127884413976E-02    0.0000000000000000E+00    0.0000000000000000E+00    0.1950996493245104E+00   -0.6482370914311562E+01    0.0000000000000000E+00    0.0000000000000000E+00    0.0000000000000000E+00    0.0000000000000000E+00    0.0000000000000000E+00
 -0.4935   0.0866    0.7538293995985189E-02    0.0000000000000000E+00    0.0000000000000000E+00    0.2016950052714074E+00   -0.7407976223868218E+01    0.0000000000000000E+00    0.0000000000000000E+00    0.0000000000000000E+00    0.0000000000000000E+00    0.0000000000000000E+00
 -0.4971   0.0541    0.7268519227891648E-02    0.0000000000000000E+00    0.0000000000000000E+00    0.2090866386013136E+00   -0.8250477881597888E+01    0.0000000000000000E+00    0.0000000000000000E+00    0.0000000000000000E+00    0.0000000000000000E+00    0.0000000000000000E+00
 -0.5006   0.0216    0.8765398546832559E-02    0.0000000000000000E+00    0.0000000000000000E+00    0.2173582586844623E+00   -0.8961711657420770E+01    0.0000000000000000E+00    0.0000000000000000E+00    0.0000000000000000E+00    0.0000000000000000E+00    0.0000000000000000E+00
 -0.5041  -0.0108    0.1195633409315888E-01    0.0000000000000000E+00    0.0000000000000000E+00    0.2265613220412291E+00   -0.9496341622338646E+01    0.0000000000000000E+00    0.0000000000000000E+00    0.0000000000000000E+00    0.0000000000000000E+00    0.0000000000000000E+00
 -0.5076  -0.0429    0.1660549338057218E-01    0.0000000000000000E+00    0.0000000000000000E+00    0.2367286511193561E+00   -0.9814243952471310E+01    0.0000000000000000E+00    0.0000000000000000E+00    0.0000000000000000E+00    0.0000000000000000E+00    0.0000000000000000E+00
 -0.5111  -0.0746    0.2231388815462751E-01    0.0000000000000000E+00    0.0000000000000000E+00    0.2478762180665962E+00   -0.9883587579803295E+01    0.0000000000000000E+00    0.0000000000000000E+00    0.0000000000000000E+00    0.0000000000000000E+00    0.0000000000000000E+00
 -0.5145  -0.1057    0.2853865789046990E-01    0.0000000000000000E+00    0.0000000000000000E+00    0.2600010079715477E+00   -0.9685079342836110E+01    0.0000000000000000E+00    0.0000000000000000E+00    0.0000000000000000E+00    0.0000000000000000E+00    0.0000000000000000E+00
 -0.5178  -0.1361    0.3463728315172274E-01    0.0000000000000000E+00    0.0000000000000000E+00    0.2730781485058439E+00   -0.9216997306044814E+01    0.0000000000000000E+00    0.0000000000000000E+00    0.0000000000000000E+00    0.0000000000000000E+00    0.0000000000000000E+00
 -0.5210  -0.1658    0.3993845469674812E-01    0.0000000000000000E+00    0.0000000000000000E+00    0.2870586956728410E+00   -0.8499577385707966E+01    0.0000000000000000E+00    0.0000000000000000E+00    0.0000000000000000E+00    0.0000000000000000E+00    0.0000000000000000E+00
 -0.5241  -0.1944    0.4383253444279493E-01    0.0000000000000000E+00    0.0000000000000000E+00    0.3018687215658440E+00   -0.7576665058586297E+01    0.0000000000000000E+00    0.0000000000000000E+00    0.0000000000000000E+00    0.0000000000000000E+00    0.0000000000000000E+00
 -0.5271  -0.2221    0.4586341896059298E-01    0.0000000000000000E+00    0.0000000000000000E+00    0.3174097267221295E+00   -0.6512758650429193E+01    0.0000000000000000E+00    0.0000000000000000E+00    0.0000000000000000E+00    0.0000000000000000E+00    0.0000000000000000E+00
 -0.5300  -0.2485    0.4579707746192793E-01    0.0000000000000000E+00    0.0000000000000000E+00    0.3335596637332138E+00   -0.5384977437826424E+01    0.0000000000000000E+00    0.0000000000000000E+00    0.0000000000000000E+00    0.0000000000000000E+00    0.0000000000000000E+00
 -0.5327  -0.2736    0.4364568819504280E-01    0.0000000000000000E+00    0.0000000000000000E+00    0.3501732104789923E+00   -0.4271542434719255E+01    0.0000000000000000E+00    0.0000000000000000E+00    0.0000000000000000E+00    0.0000000000000000E+00    0.0000000000000000E+00
 -0.5353  -0.2974    0.3964100289101274E-01    0.0000000000000000E+00    0.0000000000000000E+00    0.3670798413005932E+00   -0.3240042302225875E+01    0.0000000000000000E+00    0.0000000000000000E+00    0.0000000000000000E+00    0.0000000000000000E+00    0.0000000000000000E+00
 -0.5377  -0.3196    0.3416891628069755E-01    0.0000000000000000E+00    0.0000000000000000E+00    0.3840791877980548E+00   -0.2338949690131787E+01    0.0000000000000000E+00    0.0000000000000000E+00    0.0000000000000000E+00    0.0000000000000000E+00    0.0000000000000000E+00
 -0.5400  -0.3403    0.2768931205813811E-01    0.0000000000000000E+00    0.0000000000000000E+00    0.4009352147767415E+00   -0.1594441939632131E+01    0.0000000000000000E+00    0.0000000000000000E+00    0.0000000000000000E+00    0.0000000000000000E+00    0.0000000000000000E+00
 -0.5420  -0.3592    0.2066529391756880E-01    0.0000000000000000E+00    0.0000000000000000E+00    0.4173730796434715E+00   -0.1012385693957843E+01    0.0000000000000000E+00    0.0000000000000000E+00    0.0000000000000000E+00    0.0000000000000000E+00    0.0000000000000000E+00
 -0.5439  -0.3764    0.1351619289872517E-01    0.0000000000000000E+00    0.0000000000000000E+00    0.4330836332414172E+00   -0.5835895183562673E+00    0.0000000000000000E+00    0.0000000000000000E+00    0.0000000000000000E+00    0.0000000000000000E+00    0.0000000000000000E+00
 -0.5456  -0.3917    0.6596531999848231E-02    0.0000000000000000E+00    0.0000000000000000E+00    0.4477388795655838E+00   -0.2898244891778222E+00    0.0000000000000000E+00    0.0000000000000000E+00    0.0000000000000000E+00    0.0000000000000000E+00    0.0000000000000000E+00
 -0.5470  -0.4051    0.1938864654370748E-03    0.0000000000000000E+00    0.0000000000000000E+00    0.4610172857680852E+00   -0.1084968103812944E+00    0.0000000000000000E+00    0.0000000000000000E+00    0.0000000000000000E+00    0.0000000000000000E+00    0.0000000000000000E+00
 -0.5483  -0.4166   -0.5464787675046071E-02    0.0000000000000000E+00    0.0000000000000000E+00    0.4726326180573516E+00   -0.1503178722362248E-01    0.0000000000000000E+00    0.0000000000000000E+00    0.0000000000000000E+00    0.0000000000000000E+00    0.0000000000000000E+00
 -0.5493  -0.4260   -0.1020872436990449E-01    0.0000000000000000E+00    0.0000000000000000E+00    0.4823570841694356E+00    0.1680889852897205E-01    0.0000000000000000E+00    0.0000000000000000E+00    0.0000000000000000E+00    0.0000000000000000E+00    0.0000000000000000E+00
 -0.5501  -0.4334   -0.1392541085989412E-01    0.0000000000000000E+00    0.0000000000000000E+00    0.4900311593451692E+00    0.1448211411467074E-01    0.0000000000000000E+00    0.0000000000000000E+00    0.0000000000000000E+00    0.0000000000000000E+00    0.0000000000000000E+00
 -0.5507  -0.4387   -0.1656715314129594E-01    0.0000000000000000E+00    0.0000000000000000E+00    0.4955581413293685E+00    0.3846441748671399E-02    0.0000000000000000E+00    0.0000000000000000E+00    0.0000000000000000E+00    0.0000000000000000E+00    0.0000000000000000E+00
 -0.5510  -0.4419   -0.1814702202994246E-01    0.0000000000000000E+00    0.0000000000000000E+00    0.4988881510204654E+00   -0.1315723077042768E-03    0.0000000000000000E+00    0.0000000000000000E+00    0.0000000000000000E+00    0.0000000000000000E+00    0.0000000000000000E+00
 -0.5512  -0.4430   -0.1867643740113737E-01    0.0000000000000000E+00    0.0000000000000000E+00    0.5000000000000000E+00    0.0000000000000000E+00    0.0000000000000000E+00    0.0000000000000000E+00    0.0000000000000000E+00    0.0000000000000000E+00    0.0000000000000000E+00
 -0.4419   0.5510    0.2437473914612351E-01    0.0000000000000000E+00    0.0000000000000000E+00   -0.5000000000000000E+00   -0.2291887860864238E-03    0.0000000000000000E+00    0.0000000000000000E+00    0.0000000000000000E+00    0.0000000000000000E+00    0.0000000000000000E+00
 -0.4420   0.5500    0.2490239177150344E-01    0.2814506381013890E-06   -0.2815399597500956E-06   -0.4960222324785150E+00   -0.5369541275423328E-03   -0.1963811134991631E-09    0.9922922867503653E-10    0.5493602805734660E-12    0.5589185798210439E-12   -0.3515055867903127E-11
 -0.4424   0.5468    0.2646967192773746E-01    0.3622336080812964E-05   -0.7079975794771326E-06   -0.4841076401547630E+00   -0.2474003769960362E-02   -0.2075539035536061E-08    0.1028593421374679E-09    0.9974330389406205E-12    0.8080740937499442E-12   -0.1354383966090111E-10
 -0.4429   0.5415    0.2902568730954292E-01    0.5909352231312603E-05    0.2159133182267458E-06   -0.4643221899295808E+00   -0.3121502684959964E-02   -0.3625484434495786E-08    0.1059938730210187E-09    0.1014459349857333E-11    0.7581812781765063E-12   -0.3026218598628505E-10
 -0.4437   0.5341    0.3244445344851514E-01   -0.7519142456808482E-05    0.1661056986399772E-05   -0.4368069172121769E+00    0.9622313926608509E-02    0.3566501268720661E-08    0.1078034185357513E-09    0.9692732727550890E-12    0.7659333237097776E-12   -0.5500529025315171E-10
 -0.4448   0.5247    0.3649759852202335E-01   -0.4903891373109596E-04    0.2937923636505497E-05   -0.4018173392129908E+00    0.4726716220290809E-01    0.2596532155800346E-07    0.1088765544735026E-09    0.1023224907581444E-11    0.7629643444806433E-12   -0.8926648829843398E-10
 -0.4460   0.5132    0.4087848096678694E-01   -0.1199050324697831E-03    0.3573702247985918E-05   -0.3597666186597738E+00    0.1112467102438308E+00    0.6433761972927723E-07    0.1096060690125578E-09    0.1313319245022093E-11    0.7767606002850869E-12   -0.1369132689166275E-09
 -0.4475   0.4998    0.4523601156197810E-01   -0.2089048780376560E-03    0.3427202109833750E-05   -0.3112728798747446E+00    0.1916054066888295E+00    0.1124791618855689E-06    0.1108803170807304E-09    0.1878233679697416E-11    0.7550609443240930E-12   -0.2045663846650392E-09
 -0.4492   0.4844    0.4920895345446705E-01   -0.2946665382150921E-03    0.2495037197784745E-05   -0.2572228920409807E+00    0.2688158445536671E+00    0.1589502310669723E-06    0.1136804149079462E-09    0.2620008376919003E-11    0.7427253256864219E-12   -0.3028279120520505E-09
 -0.4510   0.4673    0.5245719665801990E-01   -0.3500756380122407E-03    0.9330906082342292E-06   -0.1988650508403659E+00    0.3179811046933408E+00    0.1890882927679628E-06    0.1191691953450480E-09    0.3325707764734176E-11    0.7696052996275515E-12   -0.4443502996109849E-09
 -0.4531   0.4483    0.5468984540395896E-01   -0.3476493407684529E-03   -0.1045782241389754E-05   -0.1379232900970955E+00    0.3136989320041650E+00    0.1881853243423669E-06    0.1284732697830193E-09    0.3724784369829592E-11    0.7692067469089459E-12   -0.6411132458250535E-09
 -0.4553   0.4277    0.5568759976164840E-01   -0.2649336203454437E-03   -0.3172412891875208E-05   -0.7668028528870822E-01    0.2351364339239129E+00    0.1441497413101268E-06    0.1428650999585335E-09    0.3603950471386952E-11    0.7627266873644345E-12   -0.8960634040322546E-09
 -0.4578   0.4055    0.5531859894700839E-01   -0.8814167752243403E-04   -0.5227421414230111E-05   -0.1792922503095023E-01    0.6935964976636273E-01    0.4964952871443415E-07    0.1637640058282930E-09    0.2876712756894051E-11    0.7749634267639749E-12   -0.1193682139244423E-08
 -0.4603   0.3817    0.5354802061960461E-01    0.1876394822640645E-03   -0.7077318352547739E-05    0.3532055786197176E-01   -0.1883641614059607E+00   -0.9795028292534348E-07    0.1925352308140837E-09    0.1560293561020387E-11    0.7544520563840251E-12   -0.1492352921794726E-08
 -0.4631   0.3566    0.5044264580747330E-01    0.5619435121624992E-03   -0.8726263779482781E-05    0.8041883340331610E-01   -0.5377548604453301E+00   -0.2983440215395215E-06    0.2296992561434674E-09   -0.3071431997625496E-12    0.7108341693040643E-12   -0.1727218798541763E-08
 -0.4659   0.3301    0.4616807067735158E-01    0.1033848552586459E-02   -0.1025448951581941E-04    0.1157751620184171E+00   -0.9779784550673523E+00   -0.5510561439796787E-06    0.2741741833567346E-09   -0.2741480653600803E-11    0.6831410437335705E-12   -0.1829382104134858E-08
 -0.4690   0.3025    0.4097458076500491E-01    0.1605032690762557E-02   -0.1175743630509759E-04    0.1413429098120510E+00   -0.1510478166253498E+01   -0.8569889270104607E-06    0.3228107642305744E-09   -0.5844887074335503E-11    0.6224465387560940E-12   -0.1753192098441492E-08
 -0.4721   0.2738    0.3517266953430102E-01    0.2279024585642287E-02   -0.1326028526343162E-04    0.1585688420278061E+00   -0.2138268586104183E+01   -0.1218101075100914E-05    0.3710237915510728E-09   -0.9771870812524952E-11    0.5435027428113415E-12   -0.1497628840385623E-08
 -0.4753   0.2442    0.2910783105990134E-01    0.3057205720756613E-02   -0.1470223262595006E-04    0.1697954805503354E+00   -0.2862273244945575E+01   -0.1635187768150519E-05    0.4137340053889105E-09   -0.1469445398694091E-10    0.4539424391936109E-12   -0.1106235764450347E-08
 -0.4786   0.2138    0.2314391820780383E-01    0.3933595702737409E-02   -0.1593664863305798E-04    0.1774568241762514E+00   -0.3676522730018024E+01   -0.2105132515625168E-05    0.4462880828781657E-09   -0.2069305664320620E-10    0.3702455009246819E-12   -0.6455082883147223E-09
 -0.4820   0.1826    0.1765407915691641E-01    0.4890779915772349E-02   -0.1678299107207516E-04    0.1834886534188589E+00   -0.4564458535617626E+01   -0.2618659772453048E-05    0.4646755619175380E-09   -0.2766390241881744E-10    0.2286087985581275E-12   -0.1793975977970250E-09
 -0.4854   0.1510    0.1300950888165377E-01    0.5898624016982097E-02   -0.1706775274251577E-04    0.1891416529957713E+00   -0.5497811538331002E+01   -0.3159670469462657E-05    0.4655732743774621E-09   -0.3528496245186474E-10    0.1244837566360957E-12    0.2479248642321685E-09
 -0.4889   0.1189    0.9557906146169057E-02    0.6916055267282274E-02   -0.1666836207018116E-04    0.1950992565498413E+00   -0.6438320600534889E+01   -0.3706153718246884E-05    0.4463306009505619E-09   -0.4299477440738997E-10    0.1139366379021567E-13    0.6138386522171191E-09
 -0.4925   0.0865    0.7591565518948514E-02    0.7894810838280700E-02   -0.1551676216133728E-04    0.2016945046987992E+00   -0.7341236834660007E+01   -0.4232216732000469E-05    0.4053189728292494E-09   -0.5016437265581430E-10   -0.7406575353030576E-13    0.9120621697125686E-09
 -0.4960   0.0540    0.7311381208312146E-02    0.8783606655953131E-02   -0.1359505680444103E-04    0.2090860596921169E+00   -0.8159192639525894E+01   -0.4710303438927169E-05    0.3422005179221088E-09   -0.5620437448783377E-10   -0.1601357935143710E-12    0.1144571750745504E-08
 -0.4995   0.0215    0.8794005417465989E-02    0.9531634181954929E-02   -0.1091315538540330E-04    0.2173576075764363E+00   -0.8845431726582550E+01   -0.5113084323235745E-05    0.2581454529304583E-09   -0.6064282409568023E-10   -0.2020328349061629E-12    0.1317187362653849E-08
 -0.5031  -0.0109    0.1196698686741592E-01    0.1009124991090704E-01   -0.7503724454541107E-05    0.2265605976981438E+00   -0.9356280472864539E+01   -0.5414899028888952E-05    0.1559097607961579E-09   -0.6321104750739437E-10   -0.2073410887426519E-12    0.1436602206118798E-08
 -0.5066  -0.0430    0.1659479398892622E-01    0.1042048461826622E-01   -0.3425210762819331E-05    0.2367278516136110E+00   -0.9653456966171154E+01   -0.5593104776306014E-05    0.3960919960077636E-10   -0.6376127403839860E-10   -0.1844999847344653E-12    0.1508869915296807E-08
 -0.5100  -0.0747    0.2227897115874071E-01    0.1048627559471498E-01    0.1212617975039471E-05    0.2478753428197079E+00   -0.9707022000368097E+01   -0.5629827439314769E-05   -0.8568132097916403E-10   -0.6235717497915516E-10   -0.1133780569428922E-12    0.1539563808036770E-08
 -0.5134  -0.1058    0.2847759861754137E-01    0.1026890363628004E-01    0.6221964010528121E-05    0.2600000584000455E+00   -0.9499432477673853E+01   -0.5514339414747151E-05   -0.2142200514199111E-09   -0.5907441202879227E-10   -0.7216449660063518E-14    0.1533916603110863E-08
 -0.5167  -0.1362    0.3454956694225618E-01    0.9767223698505537E-02    0.1131587532668499E-04    0.2730771277851403E+00   -0.9030268340465529E+01   -0.5245911404359867E-05   -0.3402612948344430E-09   -0.5425265792169398E-10    0.5789119184029801E-13    0.1496564124361943E-08
 -0.5199  -0.1659    0.3982544231710212E-01    0.9003182008930175E-02    0.1611695753484067E-04    0.2870576077637408E+00   -0.8320298958300597E+01   -0.4836230148084452E-05   -0.4584202219215516E-09   -0.4820127630367210E-10    0.1843386554511994E-12    0.1432445162485863E-08
 -0.5230  -0.1946    0.4369766294614953E-01    0.8023443385780383E-02    0.2020341850717366E-04    0.3018675696866451E+00   -0.7412854090807135E+01   -0.4310335446649532E-05   -0.5643449943470991E-09   -0.4140954246167894E-10    0.3088224120872951E-12    0.1346181747671760E-08
 -0.5261  -0.2222    0.4571204688951832E-01    0.6896199416999890E-02    0.2318844915100646E-04    0.3174085117669284E+00   -0.6370837860108937E+01   -0.3704865450682323E-05   -0.6552852149788180E-09   -0.3436473328122247E-10    0.4029693245755084E-12    0.1242837478765413E-08
 -0.5289  -0.2486    0.4563584903408533E-01    0.5702701014901390E-02    0.2481154572614853E-04    0.3335583835284737E+00   -0.5268917170712601E+01   -0.3063563090547285E-05   -0.7301770993395351E-09   -0.2756261885394906E-10    0.4726913305219682E-12    0.1126738608664413E-08
 -0.5317  -0.2738    0.4348162598449777E-01    0.4525193743592393E-02    0.2499997997928869E-04    0.3501718609587795E+00   -0.4182530555372558E+01   -0.2430695414378832E-05   -0.7895422926562645E-09   -0.2140992938493014E-10    0.5748734821509061E-12    0.1003786120196137E-08
 -0.5343  -0.2975    0.3948050603444922E-01    0.3434667635902130E-02    0.2388281490705336E-04    0.3670784203898825E+00   -0.3176702407861039E+01   -0.1844531443223684E-05   -0.8351396796335564E-09   -0.1617644906914961E-10    0.6300931998381998E-12    0.8770968500104726E-09
 -0.5367  -0.3197    0.3401704545762123E-01    0.2482018055247521E-02    0.2173737398172862E-04    0.3840777018240035E+00   -0.2298054549434218E+01   -0.1332459002307343E-05   -0.8692683794997436E-09   -0.1195832322054002E-10    0.6385308948253510E-12    0.7524818788906540E-09
 -0.5389  -0.3404    0.2754943804611641E-01    0.1694743121433119E-02    0.1891177740474043E-04    0.4009336857335325E+00   -0.1571766904028623E+01   -0.9093296266433680E-06   -0.8943229420910193E-09   -0.8701844800285130E-11    0.6648293027211594E-12    0.6317769918329219E-09
 -0.5410  -0.3593    0.2053923153929565E-01    0.1079019926495548E-02    0.1572849353714581E-04    0.4173715502281929E+00   -0.1003531353096400E+01   -0.5784209169891357E-06   -0.9123668140431640E-09   -0.6260391510748420E-11    0.6621508896742512E-12    0.5185115045658328E-09
 -0.5428  -0.3765    0.1340456057509937E-01    0.6251869034561396E-03    0.1243783829701347E-04    0.4330821662215366E+00   -0.5844679640183005E+00   -0.3345876603100317E-06   -0.9250853971742856E-09   -0.4459080348885591E-11    0.6590422652053007E-12    0.4140287453158198E-09
 -0.5445  -0.3918    0.6499255242444314E-02    0.3140139092780392E-03    0.9185602120887656E-05    0.4477375494263645E+00   -0.2969096529161807E+00   -0.1674143205464583E-06   -0.9337392560537783E-09   -0.3141993609734328E-11    0.6619427228571340E-12    0.3195158564811562E-09
 -0.5460  -0.4052    0.1104554212125075E-03    0.1215728424562994E-03    0.6068937042462521E-05    0.4610161635291439E+00   -0.1187100209668741E+00   -0.6413691818173336E-07   -0.9394013206209806E-09   -0.2195920528746953E-11    0.6673481212082777E-12    0.2363815870473629E-09
 -0.5472  -0.4167   -0.5535364078198905E-02    0.2171199153770007E-04    0.3180822648886421E-05    0.4726317534775351E+00   -0.2563701558501223E-01   -0.1061353694907949E-07   -0.9429556580009546E-09   -0.1558548429203555E-11    0.6630165166887636E-12    0.1651784100123455E-09
 -0.5483  -0.4261   -0.1026852355390712E-01   -0.1350994539913611E-04    0.7696833309693509E-06    0.4823564917188767E+00    0.8358519678873057E-02    0.7987480644922521E-08   -0.9453746312258066E-09   -0.1181509751146947E-11    0.6701618426863121E-12    0.1057510910437709E-09
 -0.5491  -0.4335   -0.1397860733242857E-01   -0.1320434834967314E-04   -0.7978969481609223E-06    0.4900308138960850E+00    0.1007937986769770E-01    0.7521766198826700E-08   -0.9474250420651864E-09   -0.1000406354978445E-11    0.6632550411667104E-12    0.5981563074713980E-10
 -0.5496  -0.4388   -0.1662059382158301E-01   -0.3933389485263178E-05   -0.1053399915794940E-05    0.4955579858383674E+00    0.3605426861117812E-02    0.2087015526559204E-08   -0.9501751985045714E-09   -0.8870933501659017E-12    0.7068690251188503E-12    0.2667640284018113E-10
 -0.5500  -0.4420   -0.1820275160156835E-01   -0.1060561494741060E-06   -0.1063365309020671E-06    0.4988881120551518E+00    0.5217581638060958E-03    0.9237177866780213E-10   -0.9533312393629131E-09   -0.4814685976295419E-12    0.4708804960534829E-12    0.6617793390107513E-11
 -0.5501  -0.4431   -0.1873223209750288E-01    0.0000000000000000E+00    0.0000000000000000E+00    0.5000000000000000E+00   -0.1309926706528402E-03    0.0000000000000000E+00    0.0000000000000000E+00    0.0000000000000000E+00    0.0000000000000000E+00    0.0000000000000000E+00
 -0.4387   0.5507    0.2454210415165422E-01    0.0000000000000000E+00    0.0000000000000000E+00   -0.5000000000000000E+00   -0.4329849348568677E-02    0.0000000000000000E+00    0.0000000000000000E+00    0.0000000000000000E+00    0.0000000000000000E+00    0.0000000000000000E+00
 -0.4388   0.5496    0.2506964090329858E-01    0.7078066675326207E-06   -0.3622319812737993E-05   -0.4960209766509223E+00   -0.2473789967276781E-02   -0.2075560352573658E-08    0.1027489955097993E-09    0.7941425837244831E-12    0.1039334579771428E-11   -0.3420055905145603E-11
 -0.4392   0.5464    0.2663485025347032E-01    0.5379382317994673E-05   -0.5379956137642985E-05   -0.4841026367763855E+00    0.1927523734943100E-02   -0.1943558340397506E-07    0.1041160818584380E-09    0.2322219456660224E-11    0.2487609944423763E-11   -0.1336098809714970E-10
 -0.4398   0.5411    0.2917855311400055E-01    0.9418098553361750E-06    0.5877391115791229E-05   -0.4643110844500983E+00    0.8163793795144798E-02   -0.2211908551877318E-07    0.1062212756988701E-09    0.3235138719415165E-11    0.2980716801853633E-11   -0.3028457259274253E-10
 -0.4406   0.5338    0.3257310878997263E-01   -0.5636451140504723E-04    0.2579964156802943E-04   -0.4367877094248578E+00    0.2240297364551130E-01    0.9704138893221301E-07    0.1079550893123837E-09    0.3568758136229810E-11    0.3045931562528637E-11   -0.5490282013742576E-10
 -0.4416   0.5243    0.3659925831170874E-01   -0.2100432219542337E-03    0.4408372975650748E-04   -0.4017884391320872E+00    0.5392418856957074E-01    0.4368139757326316E-06    0.1090699093542202E-09    0.4097573842731794E-11    0.2924226832901056E-11   -0.8904134547738085E-10
 -0.4428   0.5129    0.4095749535611496E-01   -0.4676625139357230E-03    0.5354677220646163E-04   -0.3597265399660217E+00    0.1055911933712167E+00    0.1011615336065330E-05    0.1099459655262702E-09    0.5394042851269987E-11    0.2785275482475313E-11   -0.1365097132555171E-09
 -0.4443   0.4994    0.4530037711422403E-01   -0.7897833938820244E-03    0.5114177435544508E-04   -0.3112197274779558E+00    0.1700004850978438E+00    0.1731923370460960E-05    0.1113127992558027E-09    0.7671280277676829E-11    0.2699259218919003E-11   -0.2043442741406221E-09
 -0.4460   0.4841    0.4926731476537750E-01   -0.1096913951515368E-02    0.3680168798267117E-04   -0.2571540285541422E+00    0.2304084161806974E+00    0.2422329816627150E-05    0.1141599696719009E-09    0.1060153353993343E-10    0.2720261516042655E-11   -0.3025054373662073E-09