 title="result"
 variables="x","y","P","u","v","t","omega","psi","RES1","RES2","RES3","RES4"
zone,j= 49,i= 49,f=point
 -0.2246   0.6705    0.2485072837911434E-01    0.0000000000000000E+00    0.0000000000000000E+00   -0.5000000000000000E+00    0.0000000000000000E+00    0.0000000000000000E+00    0.0000000000000000E+00    0.0000000000000000E+00    0.0000000000000000E+00    0.0000000000000000E+00
 -0.2250   0.6695    0.2532726998430231E-01    0.0000000000000000E+00    0.0000000000000000E+00   -0.4950377624100747E+00    0.4235816414838874E-03    0.0000000000000000E+00    0.0000000000000000E+00    0.0000000000000000E+00    0.0000000000000000E+00    0.0000000000000000E+00
 -0.2265   0.6667    0.2670287344117644E-01    0.0000000000000000E+00    0.0000000000000000E+00   -0.4801753001193000E+00   -0.4684364912031503E-02    0.0000000000000000E+00    0.0000000000000000E+00    0.0000000000000000E+00    0.0000000000000000E+00    0.0000000000000000E+00
 -0.2288   0.6619    0.2889844048893782E-01    0.0000000000000000E+00    0.0000000000000000E+00   -0.4555038238847995E+00   -0.4199501530855948E-01    0.0000000000000000E+00    0.0000000000000000E+00    0.0000000000000000E+00    0.0000000000000000E+00    0.0000000000000000E+00
 -0.2321   0.6553    0.3187263626381889E-01    0.0000000000000000E+00    0.0000000000000000E+00   -0.4212412266887694E+00   -0.1302972826871243E+00    0.0000000000000000E+00    0.0000000000000000E+00    0.0000000000000000E+00    0.0000000000000000E+00    0.0000000000000000E+00
 -0.2364   0.6468    0.3555076148970634E-01    0.0000000000000000E+00    0.0000000000000000E+00   -0.3778436369040856E+00   -0.2647222617346016E+00    0.0000000000000000E+00    0.0000000000000000E+00    0.0000000000000000E+00    0.0000000000000000E+00    0.0000000000000000E+00
 -0.2415   0.6364    0.3976647528863851E-01    0.0000000000000000E+00    0.0000000000000000E+00   -0.3261675424858830E+00   -0.4227235359396612E+00    0.0000000000000000E+00    0.0000000000000000E+00    0.0000000000000000E+00    0.0000000000000000E+00    0.0000000000000000E+00
 -0.2475   0.6244    0.4424431554137252E-01    0.0000000000000000E+00    0.0000000000000000E+00   -0.2676441915386179E+00   -0.5729664082226130E+00    0.0000000000000000E+00    0.0000000000000000E+00    0.0000000000000000E+00    0.0000000000000000E+00    0.0000000000000000E+00
 -0.2544   0.6105    0.4860611209860168E-01    0.0000000000000000E+00    0.0000000000000000E+00   -0.2043863140728598E+00   -0.6861330813476892E+00    0.0000000000000000E+00    0.0000000000000000E+00    0.0000000000000000E+00    0.0000000000000000E+00    0.0000000000000000E+00
 -0.2621   0.5951    0.5241101805902828E-01    0.0000000000000000E+00    0.0000000000000000E+00   -0.1391368521300320E+00   -0.7458396323613894E+00    0.0000000000000000E+00    0.0000000000000000E+00    0.0000000000000000E+00    0.0000000000000000E+00    0.0000000000000000E+00
 -0.2706   0.5780    0.5522187670534975E-01    0.0000000000000000E+00    0.0000000000000000E+00   -0.7501725715185951E-01   -0.7572637073720087E+00    0.0000000000000000E+00    0.0000000000000000E+00    0.0000000000000000E+00    0.0000000000000000E+00    0.0000000000000000E+00
 -0.2799   0.5594    0.5669033008739235E-01    0.0000000000000000E+00    0.0000000000000000E+00   -0.1512266120873124E-01   -0.7488684377047348E+00    0.0000000000000000E+00    0.0000000000000000E+00    0.0000000000000000E+00    0.0000000000000000E+00    0.0000000000000000E+00
 -0.2899   0.5394    0.5662920771684483E-01    0.0000000000000000E+00    0.0000000000000000E+00    0.3791969912716602E-01   -0.7640942316920437E+00    0.0000000000000000E+00    0.0000000000000000E+00    0.0000000000000000E+00    0.0000000000000000E+00    0.0000000000000000E+00
 -0.3005   0.5181    0.5503987902343977E-01    0.0000000000000000E+00    0.0000000000000000E+00    0.8231339894323830E-01   -0.8461470251834640E+00    0.0000000000000000E+00    0.0000000000000000E+00    0.0000000000000000E+00    0.0000000000000000E+00    0.0000000000000000E+00
 -0.3118   0.4954    0.5208025522408830E-01    0.0000000000000000E+00    0.0000000000000000E+00    0.1173104908418308E+00   -0.1025075877874463E+01    0.0000000000000000E+00    0.0000000000000000E+00    0.0000000000000000E+00    0.0000000000000000E+00    0.0000000000000000E+00
 -0.3236   0.4716    0.4799986116269698E-01    0.0000000000000000E+00    0.0000000000000000E+00    0.1432530462755653E+00   -0.1314807709802985E+01    0.0000000000000000E+00    0.0000000000000000E+00    0.0000000000000000E+00    0.0000000000000000E+00    0.0000000000000000E+00
 -0.3360   0.4467    0.4308226381200862E-01    0.0000000000000000E+00    0.0000000000000000E+00    0.1614171637632717E+00   -0.1718719639467430E+01    0.0000000000000000E+00    0.0000000000000000E+00    0.0000000000000000E+00    0.0000000000000000E+00    0.0000000000000000E+00
 -0.3489   0.4209    0.3761772221520681E-01    0.0000000000000000E+00    0.0000000000000000E+00    0.1736690351841038E+00   -0.2236046390201790E+01    0.0000000000000000E+00    0.0000000000000000E+00    0.0000000000000000E+00    0.0000000000000000E+00    0.0000000000000000E+00
 -0.3622   0.3942    0.3189941783120644E-01    0.0000000000000000E+00    0.0000000000000000E+00    0.1820192728593734E+00   -0.2863756794114614E+01    0.0000000000000000E+00    0.0000000000000000E+00    0.0000000000000000E+00    0.0000000000000000E+00    0.0000000000000000E+00
 -0.3759   0.3668    0.2622884204688665E-01    0.0000000000000000E+00    0.0000000000000000E+00    0.1882269900820296E+00   -0.3594599933934990E+01    0.0000000000000000E+00    0.0000000000000000E+00    0.0000000000000000E+00    0.0000000000000000E+00    0.0000000000000000E+00
 -0.3898   0.3388    0.2091951339510604E-01    0.0000000000000000E+00    0.0000000000000000E+00    0.1935831753377399E+00   -0.4414501470101080E+01    0.0000000000000000E+00    0.0000000000000000E+00    0.0000000000000000E+00    0.0000000000000000E+00    0.0000000000000000E+00
 -0.4040   0.3103    0.1629406474319211E-01    0.0000000000000000E+00    0.0000000000000000E+00    0.1988986044105788E+00   -0.5301438495286065E+01    0.0000000000000000E+00    0.0000000000000000E+00    0.0000000000000000E+00    0.0000000000000000E+00    0.0000000000000000E+00
 -0.4184   0.2814    0.1267158229465561E-01    0.0000000000000000E+00    0.0000000000000000E+00    0.2046208637038117E+00   -0.6226136533557595E+01    0.0000000000000000E+00    0.0000000000000000E+00    0.0000000000000000E+00    0.0000000000000000E+00    0.0000000000000000E+00
 -0.4329   0.2522    0.1034662385255836E-01    0.0000000000000000E+00    0.0000000000000000E+00    0.2109787264572313E+00   -0.7153994869520012E+01    0.0000000000000000E+00    0.0000000000000000E+00    0.0000000000000000E+00    0.0000000000000000E+00    0.0000000000000000E+00
 -0.4475   0.2230    0.9563751834235842E-02    0.0000000000000000E+00    0.0000000000000000E+00    0.2180911547740312E+00   -0.8047224769879426E+01    0.0000000000000000E+00    0.0000000000000000E+00    0.0000000000000000E+00    0.0000000000000000E+00    0.0000000000000000E+00
 -0.4621   0.1937    0.1049216646010032E-01    0.0000000000000000E+00    0.0000000000000000E+00    0.2260283218882758E+00   -0.8866392386362804E+01    0.0000000000000000E+00    0.0000000000000000E+00    0.0000000000000000E+00    0.0000000000000000E+00    0.0000000000000000E+00
 -0.4766   0.1646    0.1320212545123795E-01    0.0000000000000000E+00    0.0000000000000000E+00    0.2348381380550742E+00   -0.9571074689884947E+01    0.0000000000000000E+00    0.0000000000000000E+00    0.0000000000000000E+00    0.0000000000000000E+00    0.0000000000000000E+00
 -0.4910   0.1357    0.1764324153389717E-01    0.0000000000000000E+00    0.0000000000000000E+00    0.2445545961578521E+00   -0.1012010246116090E+02    0.0000000000000000E+00    0.0000000000000000E+00    0.0000000000000000E+00    0.0000000000000000E+00    0.0000000000000000E+00
 -0.5052   0.1071    0.2362466524200660E-01    0.0000000000000000E+00    0.0000000000000000E+00    0.2551982445659093E+00   -0.1047235684715401E+02    0.0000000000000000E+00    0.0000000000000000E+00    0.0000000000000000E+00    0.0000000000000000E+00    0.0000000000000000E+00
 -0.5192   0.0791    0.3080081052675496E-01    0.0000000000000000E+00    0.0000000000000000E+00    0.2667736364072054E+00   -0.1058927896723595E+02    0.0000000000000000E+00    0.0000000000000000E+00    0.0000000000000000E+00    0.0000000000000000E+00    0.0000000000000000E+00
 -0.5329   0.0517    0.3867072232614424E-01    0.0000000000000000E+00    0.0000000000000000E+00    0.2792658340294100E+00   -0.1043981169700929E+02    0.0000000000000000E+00    0.0000000000000000E+00    0.0000000000000000E+00    0.0000000000000000E+00    0.0000000000000000E+00
 -0.5461   0.0250    0.4660268345478549E-01    0.0000000000000000E+00    0.0000000000000000E+00    0.2926370746030535E+00   -0.1000757895548002E+02    0.0000000000000000E+00    0.0000000000000000E+00    0.0000000000000000E+00    0.0000000000000000E+00    0.0000000000000000E+00
 -0.5590  -0.0008    0.5389328594482688E-01    0.0000000000000000E+00    0.0000000000000000E+00    0.3068244095839671E+00   -0.9298668330430532E+01    0.0000000000000000E+00    0.0000000000000000E+00    0.0000000000000000E+00    0.0000000000000000E+00    0.0000000000000000E+00
 -0.5714  -0.0257    0.5986029249716992E-01    0.0000000000000000E+00    0.0000000000000000E+00    0.3217388558066736E+00   -0.8347159236925213E+01    0.0000000000000000E+00    0.0000000000000000E+00    0.0000000000000000E+00    0.0000000000000000E+00    0.0000000000000000E+00
 -0.5833  -0.0495    0.6395238349779798E-01    0.0000000000000000E+00    0.0000000000000000E+00    0.3372660456650525E+00   -0.7215182827631501E+01    0.0000000000000000E+00    0.0000000000000000E+00    0.0000000000000000E+00    0.0000000000000000E+00    0.0000000000000000E+00
 -0.5945  -0.0721    0.6584487216139752E-01    0.0000000000000000E+00    0.0000000000000000E+00    0.3532675518981113E+00   -0.5985776105535385E+01    0.0000000000000000E+00    0.0000000000000000E+00    0.0000000000000000E+00    0.0000000000000000E+00    0.0000000000000000E+00
 -0.6052  -0.0935    0.6548890296425822E-01    0.0000000000000000E+00    0.0000000000000000E+00    0.3695813232196495E+00   -0.4749605639400001E+01    0.0000000000000000E+00    0.0000000000000000E+00    0.0000000000000000E+00    0.0000000000000000E+00    0.0000000000000000E+00
 -0.6152  -0.1135    0.6309726200757065E-01    0.0000000000000000E+00    0.0000000000000000E+00    0.3860196213443756E+00   -0.3589610849580978E+01    0.0000000000000000E+00    0.0000000000000000E+00    0.0000000000000000E+00    0.0000000000000000E+00    0.0000000000000000E+00
 -0.6244  -0.1321    0.5907543618298457E-01    0.0000000000000000E+00    0.0000000000000000E+00    0.4023641047161526E+00   -0.2568571227613222E+01    0.0000000000000000E+00    0.0000000000000000E+00    0.0000000000000000E+00    0.0000000000000000E+00    0.0000000000000000E+00
 -0.6329  -0.1491    0.5392663219915951E-01    0.0000000000000000E+00    0.0000000000000000E+00    0.4183602782354636E+00   -0.1723217477284419E+01    0.0000000000000000E+00    0.0000000000000000E+00    0.0000000000000000E+00    0.0000000000000000E+00    0.0000000000000000E+00
 -0.6406  -0.1646    0.4816374195512555E-01    0.0000000000000000E+00    0.0000000000000000E+00    0.4337162720597803E+00   -0.1065295560927076E+01    0.0000000000000000E+00    0.0000000000000000E+00    0.0000000000000000E+00    0.0000000000000000E+00    0.0000000000000000E+00
 -0.6475  -0.1784    0.4224974961334708E-01    0.0000000000000000E+00    0.0000000000000000E+00    0.4481116554960179E+00   -0.5874019629830921E+00    0.0000000000000000E+00    0.0000000000000000E+00    0.0000000000000000E+00    0.0000000000000000E+00    0.0000000000000000E+00
 -0.6535  -0.1905    0.3657138775665423E-01    0.0000000000000000E+00    0.0000000000000000E+00    0.4612189262087106E+00   -0.2698948227016516E+00    0.0000000000000000E+00    0.0000000000000000E+00    0.0000000000000000E+00    0.0000000000000000E+00    0.0000000000000000E+00
 -0.6587  -0.2008    0.3143637950499791E-01    0.0000000000000000E+00    0.0000000000000000E+00    0.4727339756624139E+00   -0.8603536055524356E-01    0.0000000000000000E+00    0.0000000000000000E+00    0.0000000000000000E+00    0.0000000000000000E+00    0.0000000000000000E+00
 -0.6629  -0.2093    0.2707873190359871E-01    0.0000000000000000E+00    0.0000000000000000E+00    0.4824057195675762E+00   -0.3766304929165030E-02    0.0000000000000000E+00    0.0000000000000000E+00    0.0000000000000000E+00    0.0000000000000000E+00    0.0000000000000000E+00
 -0.6662  -0.2160    0.2365716792303529E-01    0.0000000000000000E+00    0.0000000000000000E+00    0.4900536566922427E+00    0.1374258644930293E-01    0.0000000000000000E+00    0.0000000000000000E+00    0.0000000000000000E+00    0.0000000000000000E+00    0.0000000000000000E+00
 -0.6686  -0.2207    0.2124416715760856E-01    0.0000000000000000E+00    0.0000000000000000E+00    0.4955672904318155E+00    0.5501280136836299E-02    0.0000000000000000E+00    0.0000000000000000E+00    0.0000000000000000E+00    0.0000000000000000E+00    0.0000000000000000E+00
 -0.6700  -0.2236    0.1981792198245623E-01    0.0000000000000000E+00    0.0000000000000000E+00    0.4988903894534082E+00   -0.5004723382048723E-04    0.0000000000000000E+00    0.0000000000000000E+00    0.0000000000000000E+00    0.0000000000000000E+00    0.0000000000000000E+00
 -0.6705  -0.2246    0.1934285616372086E-01    0.0000000000000000E+00    0.0000000000000000E+00    0.5000000000000000E+00    0.0000000000000000E+00    0.0000000000000000E+00    0.0000000000000000E+00    0.0000000000000000E+00    0.0000000000000000E+00    0.0000000000000000E+00
 -0.2236   0.6700    0.2508960882174706E-01    0.0000000000000000E+00    0.0000000000000000E+00   -0.5000000000000000E+00    0.4239497087276271E-03    0.0000000000000000E+00    0.0000000000000000E+00    0.0000000000000000E+00    0.0000000000000000E+00    0.0000000000000000E+00
 -0.2241   0.6691    0.2556496726507093E-01    0.3428316445593555E-08   -0.3204125744774728E-08   -0.4950376125437241E+00   -0.6806598857502357E-03    0.1278671852336096E-10   -0.6879226374743169E-09   -0.6787879720110412E-12   -0.6849716106815951E-12    0.1333845273815415E-10
 -0.2255   0.6662    0.2694263560933579E-01    0.6716247446063292E-05   -0.2237037632022122E-05   -0.4801746914951001E+00   -0.8349196147845576E-02   -0.3271588645267680E-08   -0.6926059925235761E-09   -0.1242183439442712E-11   -0.9753239882392961E-12    0.5305244091258210E-10
 -0.2279   0.6614    0.2914191108726180E-01    0.4519086244143730E-04   -0.5395493814020154E-05   -0.4555023952348116E+00   -0.4268697655610298E-01   -0.2420398109023571E-07   -0.6974612918458911E-09   -0.1132466679026195E-11   -0.9577720561093628E-12    0.1195261008224424E-09
 -0.2312   0.6548    0.3211046397670136E-01    0.1356457030267459E-03   -0.7476106151474693E-05   -0.4212385284576315E+00   -0.1233354784684032E+00   -0.7326815529338770E-07   -0.7014394221710463E-09   -0.4624460536728492E-12   -0.1051304876487080E-11    0.2120414642481361E-09
 -0.2354   0.6463    0.3577063750945579E-01    0.2748018606301835E-03   -0.8085792317909088E-05   -0.3778391740997724E+00   -0.2487987764287754E+00   -0.1486225173047368E-06   -0.7044627502866829E-09    0.7044295702307579E-12   -0.9978545767452829E-12    0.3299642781229295E-09
 -0.2406   0.6360    0.3995759179115794E-01    0.4398806386806777E-03   -0.7195172964961244E-05   -0.3261608942952929E+00   -0.3991750306205193E+00   -0.2376841471241369E-06   -0.7058977430363100E-09    0.2183628278196181E-11   -0.1020281081842711E-11    0.4714517595760803E-09
 -0.2466   0.6239    0.4439844244444010E-01    0.5983425571746099E-03   -0.5353479090334539E-05   -0.2676351679908408E+00   -0.5449500637839766E+00   -0.3229409811996119E-06   -0.7058263678388910E-09    0.3647179780408294E-11   -0.9854686511268085E-12    0.6318996437215674E-09
 -0.2535   0.6101    0.4871902726258763E-01    0.7193408146885164E-03   -0.3084309278192130E-05   -0.2043750819816834E+00   -0.6578348559678121E+00   -0.3877262324440147E-06   -0.7046109121514044E-09    0.4774999839973759E-11   -0.9539938283786853E-12    0.8047011529344061E-09
 -0.2612   0.5946    0.5248299273922110E-01    0.7853977255009475E-03   -0.1096101127087442E-05   -0.1391239592629976E+00   -0.7215375057912896E+00   -0.4227136865429108E-06   -0.7031734612986118E-09    0.5282378701121360E-11   -0.9348338075865215E-12    0.9791290833671695E-09
 -0.2697   0.5775    0.5525760467456853E-01    0.8015881514097669E-03    0.6244563701640668E-07   -0.7500352985282852E-01   -0.7403695386221355E+00   -0.4306738392693823E-06   -0.7026561262766769E-09    0.4966409228313040E-11   -0.9116622387561613E-12    0.1140609842686935E-08
 -0.2789   0.5590    0.5669758745862787E-01    0.7974782628401660E-03    0.3007975910790902E-07   -0.1510902468026224E-01   -0.7410885717332658E+00   -0.4276117954043763E-06   -0.7043896965274604E-09    0.3747242099949588E-11   -0.8594960680674557E-12    0.1270237998118873E-08
 -0.2889   0.5389    0.5661678012960939E-01    0.8185300875140414E-03   -0.1111430457287765E-05    0.3793239020408611E-01   -0.7651901548438976E+00   -0.4380346703945167E-06   -0.7094933282374150E-09    0.1736232685400907E-11   -0.8297928316691738E-12    0.1343409453125055E-08
 -0.2996   0.5176    0.5501554518753136E-01    0.9102089899669814E-03   -0.3005001173263758E-05    0.8232446630627326E-01   -0.8544020665904021E+00   -0.4864258708328795E-06   -0.7181761296770617E-09   -0.7979727989493313E-12   -0.7156497616733759E-12    0.1331081120325983E-08
 -0.3108   0.4949    0.5204989968061952E-01    0.1104365241038967E-02   -0.5171402672925128E-05    0.1173194861955659E+00   -0.1038185342487034E+01   -0.5898880982241663E-06   -0.7293059784557743E-09   -0.3502677314859426E-11   -0.7172561156121304E-12    0.1204734194348855E-08
 -0.3227   0.4711    0.4796766544491089E-01    0.1415944901796314E-02   -0.7315400540565678E-05    0.1432597855621659E+00   -0.1330537465211691E+01   -0.7564151286535140E-06   -0.7403847257503315E-09   -0.6089038995238383E-11   -0.6350406311916856E-12    0.9464762792954495E-09
 -0.3351   0.4463    0.4305126756318960E-01    0.1848669842390299E-02   -0.9315161748118120E-05    0.1614217418416312E+00   -0.1735038649058668E+01   -0.9879836652053357E-06   -0.7483081931880520E-09   -0.8364225978496620E-11   -0.5696484950412639E-12    0.5596682180197821E-09
 -0.3479   0.4204    0.3759003446087569E-01    0.2401695222534372E-02   -0.1117682853113946E-04    0.1736717880815344E+00   -0.2250875533755950E+01   -0.1284140746035262E-05   -0.7502318592755852E-09   -0.1018353457116206E-10   -0.4731770530952417E-12    0.7466331025662853E-10
 -0.3612   0.3938    0.3187610175858591E-01    0.3071601764678142E-02   -0.1287249972555484E-04    0.1820206732004479E+00   -0.2874690158115243E+01   -0.1643094547233890E-05   -0.7443540298024409E-09   -0.1142450370417158E-10   -0.3574779361414926E-12   -0.4581531664465954E-09
 -0.3749   0.3664    0.2620977963606722E-01    0.3850383993363667E-02   -0.1434320096916158E-04    0.1882275125588514E+00   -0.3598777031853674E+01   -0.2060594195872506E-05   -0.7300630273932018E-09   -0.1194164558904198E-10   -0.2446653990517689E-12   -0.9832758123343166E-09
 -0.3889   0.3383    0.2090346314637483E-01    0.4722755798197047E-02   -0.1547727680775079E-04    0.1935831943018674E+00   -0.4408650534135208E+01   -0.2528507349085556E-05   -0.7078244552982671E-09   -0.1167255181400151E-10   -0.1593586373971334E-12   -0.1455947775807088E-08
 -0.4031   0.3098    0.1627888443222381E-01    0.5665012719522745E-02   -0.1617806936583459E-04    0.1988983589875919E+00   -0.5282050113365900E+01   -0.3034156399113278E-05   -0.6786804139513603E-09   -0.1068373861601302E-10   -0.4467259895335474E-13   -0.1849869466809262E-08
 -0.4175   0.2809    0.1265451177679054E-01    0.6645822636429803E-02   -0.1635623298744281E-04    0.2046204788709103E+00   -0.6189712610268498E+01   -0.3560782730094072E-05   -0.6438401790875847E-09   -0.9130848854788098E-11    0.3835820550079916E-13   -0.2157093087484796E-08
 -0.4320   0.2518    0.1032453870387050E-01    0.7628300511764816E-02   -0.1596568289814493E-04    0.2109782549444041E+00   -0.7097332659278427E+01   -0.4088599854318694E-05   -0.6044929695692147E-09   -0.7276568236846970E-11    0.1495192858413930E-12   -0.2381629135225771E-08
 -0.4466   0.2225    0.9533314066760166E-02    0.8572293840894772E-02   -0.1496861499992175E-04    0.2180906127978190E+00   -0.7967681929510419E+01   -0.4596078251990138E-05   -0.5616821174836417E-09   -0.5357103649572537E-11    0.1968147866904246E-12   -0.2532949616544655E-08
 -0.4612   0.1932    0.1044987167005879E-01    0.9436021793715162E-02   -0.1334237752440915E-04    0.2260277104779772E+00   -0.8762142653487453E+01   -0.5060758066589439E-05   -0.5165003910678756E-09   -0.3519240454608052E-11    0.2562255962956783E-12   -0.2621657714703407E-08
 -0.4757   0.1641    0.1314425285532798E-01    0.1017677925336227E-01   -0.1104283065882226E-04    0.2348374531691467E+00   -0.9441350528003611E+01   -0.5459698889353516E-05   -0.4699364578031329E-09   -0.1795730231179959E-11    0.2534569776280193E-12   -0.2657357929189419E-08
 -0.4901   0.1352    0.1756580971419995E-01    0.1075121022288293E-01   -0.8023356842937248E-05    0.2445538329263991E+00   -0.9965481554932314E+01   -0.5769543816472487E-05   -0.4227194688039004E-09   -0.7172040739078511E-13    0.1920338887906325E-12   -0.2648430915547229E-08
 -0.5043   0.1067    0.2352346028803870E-01    0.1111617936298914E-01   -0.4234580019262215E-05    0.2551973991444581E+00   -0.1029506240769884E+02   -0.5967069869183540E-05   -0.3750167997321197E-09    0.1858790898978668E-11    0.1389305337440305E-12   -0.2601426116188854E-08
 -0.5182   0.0786    0.3067162834798088E-01    0.1123144444960409E-01    0.3194604725665378E-06    0.2667727069369618E+00   -0.1039347802709542E+02   -0.6030525854963408E-05   -0.3262100320769457E-09    0.4220679361566226E-11    0.2732579787445566E-13   -0.2522663002102465E-08
 -0.5319   0.0512    0.3850984091533027E-01    0.1106487015602801E-01    0.5545583707466508E-05    0.2792648210729958E+00   -0.1023174297485928E+02   -0.5942540920522947E-05   -0.2748913111028095E-09    0.7164713267115985E-11   -0.8008177454499332E-13   -0.2416556746376308E-08
 -0.5452   0.0246    0.4640759563961404E-01    0.1059994120801781E-01    0.1119963405420381E-04    0.2926359809571086E+00   -0.9795389251040396E+01   -0.5694062787503377E-05   -0.2193690194773890E-09    0.1065580956804979E-10   -0.2328068293699914E-12   -0.2287857181482167E-08
 -0.5581  -0.0013    0.5366348343127134E-01    0.9843848571633684E-02    0.1688267115868484E-04    0.3068232393002729E+00   -0.9091755158853948E+01   -0.5288855270823718E-05   -0.1580296379866120E-09    0.1441768926468967E-10   -0.3397143677474901E-12   -0.2140431172581447E-08
 -0.5704  -0.0261    0.5959790634456337E-01    0.8833150135630559E-02    0.2206528581804828E-04    0.3217376124815191E+00   -0.8155071734182590E+01   -0.4746435391564751E-05   -0.9059610006634244E-10    0.1799949078673535E-10   -0.4637956685371591E-12   -0.1977834535038525E-08
 -0.5823  -0.0499    0.6366230587088512E-01    0.7633690642446875E-02    0.2619559201870175E-04    0.3372647305454340E+00   -0.7046207584326328E+01   -0.4102210101452662E-05   -0.1842220126446747E-10    0.2082989336571472E-10   -0.5123124147132785E-12   -0.1803968091226849E-08
 -0.5936  -0.0726    0.6553427711062706E-01    0.6333009642516334E-02    0.2882177152492364E-04    0.3532661629436399E+00   -0.5845682573734077E+01   -0.3403230024956135E-05    0.5533751928910036E-10    0.2243533137047393E-10   -0.5436484595833235E-12   -0.1622546185950369E-08
 -0.6042  -0.0940    0.6516614047621747E-01    0.5026418355174424E-02    0.2971760364793122E-04    0.3695798566178138E+00   -0.4640873153909324E+01   -0.2700878727159753E-05    0.1264750804086390E-09    0.2255023945352264E-10   -0.5430655924953953E-12   -0.1436880208566249E-08
 -0.6142  -0.1140    0.6277057922629720E-01    0.3800964578693090E-02    0.2892388995283317E-04    0.3860180766332762E+00   -0.3511481949879415E+01   -0.2041998115675409E-05    0.1907716692950423E-09    0.2115740915797915E-10   -0.5478117959256679E-12   -0.1250624230911268E-08
 -0.6235  -0.1325    0.5875182348194049E-01    0.2722497121634789E-02    0.2671459988102165E-04    0.4023624932734924E+00   -0.2517723335572474E+01   -0.1462148914660733E-05    0.2450007488552508E-09    0.1854763564956841E-10   -0.5029310301551959E-12   -0.1066927816928409E-08
 -0.6320  -0.1496    0.5361128393159907E-01    0.1829545161002336E-02    0.2348499405953318E-04    0.4183586326057279E+00   -0.1694875496308419E+01   -0.9820117194245489E-06    0.2875125137968837E-09    0.1516438363768913E-10   -0.4872491299323656E-12   -0.8891430907514986E-09
 -0.6397  -0.1651    0.4786002141651864E-01    0.1134444010621578E-02    0.1963068781692951E-04    0.4337146514248945E+00   -0.1054202247353667E+01   -0.6083314365577364E-06    0.3183211819135501E-09    0.1150804798677463E-10   -0.4734268532757824E-12   -0.7201833903541788E-09
 -0.6466  -0.1789    0.4195970887592065E-01    0.6293853081178223E-03    0.1545698464063047E-04    0.4481101422239253E+00   -0.5885661259988202E+00   -0.3367883330139475E-06    0.3386955785278367E-09    0.8040577210120803E-11   -0.4732325642464730E-12   -0.5626438551176172E-09
 -0.6526  -0.1910    0.3629620578973360E-01    0.2935948508681491E-03    0.1116119515218515E-04    0.4612176110644157E+00   -0.2787415106535854E+00   -0.1563642312831470E-06    0.3507058012053310E-09    0.5100225797249891E-11   -0.4665989816743377E-12   -0.4200505013263189E-09
 -0.6577  -0.2013    0.3117660142233175E-01    0.9861143955954823E-04    0.6908785013408126E-05    0.4727329345204794E+00   -0.9837497701782294E-01   -0.5161220800487375E-07    0.3567237755186525E-09    0.2917954072811924E-11   -0.4955133525719191E-12   -0.2955739654766920E-09
 -0.6619  -0.2098    0.2683349146063270E-01    0.1021879161276288E-04    0.3000043275566245E-05    0.4824049898991651E+00   -0.1547409922797886E-01   -0.4433683326875424E-08    0.3592756135997743E-09    0.1561837464914007E-11   -0.5486427284706608E-12   -0.1908739017536520E-09
 -0.6653  -0.2164    0.2342267120465451E-01   -0.1084169911860298E-04    0.1788447951400370E-07    0.4900532244277738E+00    0.6293553707482461E-02    0.6549327737221524E-08    0.3605189968444462E-09    0.9377776333252541E-12   -0.5389655735599241E-12   -0.1077064622385937E-09
 -0.6676  -0.2212    0.2101158304172041E-01   -0.5038582302080161E-05   -0.1196286816767899E-05    0.4955670942386387E+00    0.3970630767554276E-02    0.2767237611906428E-08    0.3624378954510815E-09    0.7465191659283832E-12   -0.5911581987816383E-12   -0.4829276540295468E-10
 -0.6691  -0.2241    0.1958297938281675E-01   -0.2122241960992046E-06   -0.2121955101520110E-06    0.4988903401674092E+00    0.7210868456423685E-03    0.1808517618387208E-09    0.3650670297745268E-09    0.4228281678779477E-12   -0.4185727285610508E-12   -0.1245574406420411E-10
 -0.6695  -0.2250    0.1910764873089900E-01    0.0000000000000000E+00    0.0000000000000000E+00    0.5000000000000000E+00   -0.4977961313590643E-04    0.0000000000000000E+00    0.0000000000000000E+00    0.0000000000000000E+00    0.0000000000000000E+00    0.0000000000000000E+00
 -0.2207   0.6686    0.2582876143839847E-01    0.0000000000000000E+00    0.0000000000000000E+00   -0.5000000000000000E+00   -0.4679913336193189E-02    0.0000000000000000E+00    0.0000000000000000E+00    0.0000000000000000E+00    0.0000000000000000E+00    0.0000000000000000E+00
 -0.2212   0.6676    0.2629496243270367E-01    0.2235500045013402E-05   -0.6713425708434604E-05   -0.4950353966117260E+00   -0.8347977022064738E-02   -0.3269725630210509E-08   -0.6921137517268416E-09   -0.9720610275910924E-12   -0.1260705515676586E-11    0.1304920939099868E-10
 -0.2226   0.6648    0.2766197188614941E-01    0.3579906419307729E-04   -0.3580295812389381E-04   -0.4801657306595635E+00   -0.1889301702959262E-01   -0.6993804815864027E-07   -0.6940352251239013E-09   -0.2772019267772985E-11   -0.3154710867536714E-11    0.5303930168329418E-10
 -0.2250   0.6600    0.2985721311816549E-01    0.1766492464124497E-03   -0.7882219720581197E-04   -0.4554815731293506E+00   -0.4531152492377394E-01   -0.3829137960693999E-06   -0.6975031038858326E-09   -0.3191572874039483E-11   -0.4105042694657612E-11    0.1195372655027338E-09
 -0.2283   0.6533    0.3280598562109300E-01    0.4980006862756781E-03   -0.1112654688204123E-03   -0.4211996326380360E+00   -0.1057533944681165E+00   -0.1106494965089031E-05   -0.7011267538770127E-09   -0.1301406898912560E-11   -0.4583444734862496E-11    0.2117463895195959E-09
 -0.2326   0.6448    0.3641580281995642E-01    0.1002788388559459E-02   -0.1218011623226902E-03   -0.3777752761162699E+00   -0.2062956811087102E+00   -0.2233599273097486E-05   -0.7040712041161967E-09    0.2623977424232038E-11   -0.4779451140413116E-11    0.3296577039124671E-09
 -0.2377   0.6345    0.4052168134827654E-01    0.1616793132796674E-02   -0.1105914164047415E-03   -0.3260658885435807E+00   -0.3348124217602540E+00   -0.3589443732769051E-05   -0.7057616852046422E-09    0.7807275659299506E-11   -0.4726365132601273E-11    0.4709782702727594E-09
 -0.2437   0.6224    0.4485714651395477E-01    0.2222384125660245E-02   -0.8381881751556089E-04   -0.2675059816770908E+00   -0.4674281406916561E+00   -0.4910684766053655E-05   -0.7060849682716253E-09    0.1303530200447156E-10   -0.4504799311355612E-11    0.6315926392996829E-09
 -0.2506   0.6086    0.4905902363036083E-01    0.2703258362659744E-02   -0.5029899331975224E-04   -0.2042135960075090E+00   -0.5790305640658274E+00   -0.5941808315902709E-05   -0.7054144490759029E-09    0.1704573981964330E-10   -0.4149873153447281E-11    0.8043422733416961E-09