 title="result"
 variables="x","y","P","u","v","t","omega","psi","RES1","RES2","RES3","RES4"
zone,j= 49,i= 49,f=point
 -0.5000   0.5000    0.2263958820657990E-01    0.0000000000000000E+00    0.0000000000000000E+00   -0.5000000000000000E+00    0.0000000000000000E+00    0.0000000000000000E+00    0.0000000000000000E+00    0.0000000000000000E+00    0.0000000000000000E+00    0.0000000000000000E+00
 -0.5000   0.4989    0.2317009600963195E-01    0.0000000000000000E+00    0.0000000000000000E+00   -0.4963847803585438E+00   -0.3797201244908437E-03    0.0000000000000000E+00    0.0000000000000000E+00    0.0000000000000000E+00    0.0000000000000000E+00    0.0000000000000000E+00
 -0.5000   0.4957    0.2475771214214290E-01    0.0000000000000000E+00    0.0000000000000000E+00   -0.4855559377535217E+00   -0.4673089057995405E-02    0.0000000000000000E+00    0.0000000000000000E+00    0.0000000000000000E+00    0.0000000000000000E+00    0.0000000000000000E+00
 -0.5000   0.4904    0.2737133115500330E-01    0.0000000000000000E+00    0.0000000000000000E+00   -0.4675715928421819E+00   -0.1049707694132036E-02    0.0000000000000000E+00    0.0000000000000000E+00    0.0000000000000000E+00    0.0000000000000000E+00    0.0000000000000000E+00
 -0.5000   0.4830    0.3087645310997541E-01    0.0000000000000000E+00    0.0000000000000000E+00   -0.4425513516548555E+00    0.3564784922726180E-01    0.0000000000000000E+00    0.0000000000000000E+00    0.0000000000000000E+00    0.0000000000000000E+00    0.0000000000000000E+00
 -0.5000   0.4735    0.3501100971904873E-01    0.0000000000000000E+00    0.0000000000000000E+00   -0.4106989156419550E+00    0.1217400507310308E+00    0.0000000000000000E+00    0.0000000000000000E+00    0.0000000000000000E+00    0.0000000000000000E+00    0.0000000000000000E+00
 -0.5000   0.4619    0.3943509693713962E-01    0.0000000000000000E+00    0.0000000000000000E+00   -0.3723157086134635E+00    0.2553865270818141E+00    0.0000000000000000E+00    0.0000000000000000E+00    0.0000000000000000E+00    0.0000000000000000E+00    0.0000000000000000E+00
 -0.5000   0.4484    0.4377647050656037E-01    0.0000000000000000E+00    0.0000000000000000E+00   -0.3278087398635486E+00    0.4164655814410392E+00    0.0000000000000000E+00    0.0000000000000000E+00    0.0000000000000000E+00    0.0000000000000000E+00    0.0000000000000000E+00
 -0.5000   0.4330    0.4767565669479244E-01    0.0000000000000000E+00    0.0000000000000000E+00   -0.2777185908827938E+00    0.5709577377705269E+00    0.0000000000000000E+00    0.0000000000000000E+00    0.0000000000000000E+00    0.0000000000000000E+00    0.0000000000000000E+00
 -0.5000   0.4157    0.5082009271717725E-01    0.0000000000000000E+00    0.0000000000000000E+00   -0.2228050466275041E+00    0.6788626442992205E+00    0.0000000000000000E+00    0.0000000000000000E+00    0.0000000000000000E+00    0.0000000000000000E+00    0.0000000000000000E+00
 -0.5000   0.3967    0.5296553749069559E-01    0.0000000000000000E+00    0.0000000000000000E+00   -0.1642122150244608E+00    0.7039693587313115E+00    0.0000000000000000E+00    0.0000000000000000E+00    0.0000000000000000E+00    0.0000000000000000E+00    0.0000000000000000E+00
 -0.5000   0.3759    0.5393884349738041E-01    0.0000000000000000E+00    0.0000000000000000E+00   -0.1036830517831777E+00    0.6227577511547243E+00    0.0000000000000000E+00    0.0000000000000000E+00    0.0000000000000000E+00    0.0000000000000000E+00    0.0000000000000000E+00
 -0.5000   0.3536    0.5363099996846822E-01    0.0000000000000000E+00    0.0000000000000000E+00   -0.4370856931470876E-01    0.4282988032265724E+00    0.0000000000000000E+00    0.0000000000000000E+00    0.0000000000000000E+00    0.0000000000000000E+00    0.0000000000000000E+00
 -0.5000   0.3297    0.5199473784104131E-01    0.0000000000000000E+00    0.0000000000000000E+00    0.1257960623941725E-01    0.1270317229442058E+00    0.0000000000000000E+00    0.0000000000000000E+00    0.0000000000000000E+00    0.0000000000000000E+00    0.0000000000000000E+00
 -0.5000   0.3044    0.4905856353947077E-01    0.0000000000000000E+00    0.0000000000000000E+00    0.6193407142992868E-01   -0.2696275400867902E+00    0.0000000000000000E+00    0.0000000000000000E+00    0.0000000000000000E+00    0.0000000000000000E+00    0.0000000000000000E+00
 -0.5000   0.2778    0.4494745488524067E-01    0.0000000000000000E+00    0.0000000000000000E+00    0.1018669114976691E+00   -0.7533289652785171E+00    0.0000000000000000E+00    0.0000000000000000E+00    0.0000000000000000E+00    0.0000000000000000E+00    0.0000000000000000E+00
 -0.5000   0.2500    0.3988870193189276E-01    0.0000000000000000E+00    0.0000000000000000E+00    0.1314756415448915E+00   -0.1322077018726513E+01    0.0000000000000000E+00    0.0000000000000000E+00    0.0000000000000000E+00    0.0000000000000000E+00    0.0000000000000000E+00
 -0.5000   0.2211    0.3419117936551253E-01    0.0000000000000000E+00    0.0000000000000000E+00    0.1517010019592721E+00   -0.1978287289722940E+01    0.0000000000000000E+00    0.0000000000000000E+00    0.0000000000000000E+00    0.0000000000000000E+00    0.0000000000000000E+00
 -0.5000   0.1913    0.2821173828754936E-01    0.0000000000000000E+00    0.0000000000000000E+00    0.1648194605713988E+00   -0.2723850011746772E+01    0.0000000000000000E+00    0.0000000000000000E+00    0.0000000000000000E+00    0.0000000000000000E+00    0.0000000000000000E+00
 -0.5000   0.1607    0.2232830750635361E-01    0.0000000000000000E+00    0.0000000000000000E+00    0.1735030849706657E+00   -0.3554342805691299E+01    0.0000000000000000E+00    0.0000000000000000E+00    0.0000000000000000E+00    0.0000000000000000E+00    0.0000000000000000E+00
 -0.5000   0.1294    0.1692481828320158E-01    0.0000000000000000E+00    0.0000000000000000E+00    0.1800149145258698E+00   -0.4454325661289835E+01    0.0000000000000000E+00    0.0000000000000000E+00    0.0000000000000000E+00    0.0000000000000000E+00    0.0000000000000000E+00
 -0.5000   0.0975    0.1237712690445942E-01    0.0000000000000000E+00    0.0000000000000000E+00    0.1858727728691518E+00   -0.5395436818795550E+01    0.0000000000000000E+00    0.0000000000000000E+00    0.0000000000000000E+00    0.0000000000000000E+00    0.0000000000000000E+00
 -0.5000   0.0653    0.9029823263501756E-02    0.0000000000000000E+00    0.0000000000000000E+00    0.1919233261223710E+00   -0.6337899632517317E+01    0.0000000000000000E+00    0.0000000000000000E+00    0.0000000000000000E+00    0.0000000000000000E+00    0.0000000000000000E+00
 -0.5000   0.0327    0.7162484139268133E-02    0.0000000000000000E+00    0.0000000000000000E+00    0.1985801520439442E+00   -0.7234373125897383E+01    0.0000000000000000E+00    0.0000000000000000E+00    0.0000000000000000E+00    0.0000000000000000E+00    0.0000000000000000E+00
 -0.5000   0.0000    0.6952106247575011E-02    0.0000000000000000E+00    0.0000000000000000E+00    0.2060354985283728E+00   -0.8034481008929367E+01    0.0000000000000000E+00    0.0000000000000000E+00    0.0000000000000000E+00    0.0000000000000000E+00    0.0000000000000000E+00
 -0.5000  -0.0327    0.8439599231074190E-02    0.0000000000000000E+00    0.0000000000000000E+00    0.2143853500222534E+00   -0.8688811503895211E+01    0.0000000000000000E+00    0.0000000000000000E+00    0.0000000000000000E+00    0.0000000000000000E+00    0.0000000000000000E+00
 -0.5000  -0.0653    0.1150650371969062E-01    0.0000000000000000E+00    0.0000000000000000E+00    0.2236851057011995E+00   -0.9152210784010057E+01    0.0000000000000000E+00    0.0000000000000000E+00    0.0000000000000000E+00    0.0000000000000000E+00    0.0000000000000000E+00
 -0.5000  -0.0975    0.1586569631138633E-01    0.0000000000000000E+00    0.0000000000000000E+00    0.2339683187864489E+00   -0.9386894302988427E+01    0.0000000000000000E+00    0.0000000000000000E+00    0.0000000000000000E+00    0.0000000000000000E+00    0.0000000000000000E+00
 -0.5000  -0.1294    0.2107014246439800E-01    0.0000000000000000E+00    0.0000000000000000E+00    0.2452501986725812E+00   -0.9366096462935161E+01    0.0000000000000000E+00    0.0000000000000000E+00    0.0000000000000000E+00    0.0000000000000000E+00    0.0000000000000000E+00
 -0.5000  -0.1607    0.2654414720420843E-01    0.0000000000000000E+00    0.0000000000000000E+00    0.2575260841660682E+00   -0.9078437831865832E+01    0.0000000000000000E+00    0.0000000000000000E+00    0.0000000000000000E+00    0.0000000000000000E+00    0.0000000000000000E+00
 -0.5000  -0.1913    0.3164039950910025E-01    0.0000000000000000E+00    0.0000000000000000E+00    0.2707689764805386E+00   -0.8532321347830194E+01    0.0000000000000000E+00    0.0000000000000000E+00    0.0000000000000000E+00    0.0000000000000000E+00    0.0000000000000000E+00
 -0.5000  -0.2211    0.3572009703773976E-01    0.0000000000000000E+00    0.0000000000000000E+00    0.2849277672839006E+00   -0.7758741920874998E+01    0.0000000000000000E+00    0.0000000000000000E+00    0.0000000000000000E+00    0.0000000000000000E+00    0.0000000000000000E+00
 -0.5000  -0.2500    0.3824417624683720E-01    0.0000000000000000E+00    0.0000000000000000E+00    0.2999267522132715E+00   -0.6810634476700677E+01    0.0000000000000000E+00    0.0000000000000000E+00    0.0000000000000000E+00    0.0000000000000000E+00    0.0000000000000000E+00
 -0.5000  -0.2778    0.3885465765987330E-01    0.0000000000000000E+00    0.0000000000000000E+00    0.3156662429275376E+00   -0.5757543302395546E+01    0.0000000000000000E+00    0.0000000000000000E+00    0.0000000000000000E+00    0.0000000000000000E+00    0.0000000000000000E+00
 -0.5000  -0.3044    0.3742328951631403E-01    0.0000000000000000E+00    0.0000000000000000E+00    0.3320233203687403E+00   -0.4676077138610633E+01    0.0000000000000000E+00    0.0000000000000000E+00    0.0000000000000000E+00    0.0000000000000000E+00    0.0000000000000000E+00
 -0.5000  -0.3297    0.3405310314561455E-01    0.0000000000000000E+00    0.0000000000000000E+00    0.3488512529055164E+00   -0.3638426905170013E+01    0.0000000000000000E+00    0.0000000000000000E+00    0.0000000000000000E+00    0.0000000000000000E+00    0.0000000000000000E+00
 -0.5000  -0.3536    0.2903484566728555E-01    0.0000000000000000E+00    0.0000000000000000E+00    0.3659763232628594E+00   -0.2702266815220561E+01    0.0000000000000000E+00    0.0000000000000000E+00    0.0000000000000000E+00    0.0000000000000000E+00    0.0000000000000000E+00
 -0.5000  -0.3759    0.2277574384973616E-01    0.0000000000000000E+00    0.0000000000000000E+00    0.3831921389753698E+00   -0.1904803245929790E+01    0.0000000000000000E+00    0.0000000000000000E+00    0.0000000000000000E+00    0.0000000000000000E+00    0.0000000000000000E+00
 -0.5000  -0.3967    0.1572459947167677E-01    0.0000000000000000E+00    0.0000000000000000E+00    0.4002537465902964E+00   -0.1262028338579748E+01    0.0000000000000000E+00    0.0000000000000000E+00    0.0000000000000000E+00    0.0000000000000000E+00    0.0000000000000000E+00
 -0.5000  -0.4157    0.8312820755221660E-02    0.0000000000000000E+00    0.0000000000000000E+00    0.4168759555625951E+00   -0.7722331747512533E+00    0.0000000000000000E+00    0.0000000000000000E+00    0.0000000000000000E+00    0.0000000000000000E+00    0.0000000000000000E+00
 -0.5000  -0.4330    0.9199055084933799E-03    0.0000000000000000E+00    0.0000000000000000E+00    0.4327405848461732E+00   -0.4216670141241723E+00    0.0000000000000000E+00    0.0000000000000000E+00    0.0000000000000000E+00    0.0000000000000000E+00    0.0000000000000000E+00
 -0.5000  -0.4484   -0.6138466446919358E-02    0.0000000000000000E+00    0.0000000000000000E+00    0.4475147931631877E+00   -0.1900863426416641E+00    0.0000000000000000E+00    0.0000000000000000E+00    0.0000000000000000E+00    0.0000000000000000E+00    0.0000000000000000E+00
 -0.5000  -0.4619   -0.1260828342291869E-01    0.0000000000000000E+00    0.0000000000000000E+00    0.4608778790594857E+00   -0.5463854038301055E-01    0.0000000000000000E+00    0.0000000000000000E+00    0.0000000000000000E+00    0.0000000000000000E+00    0.0000000000000000E+00
 -0.5000  -0.4735   -0.1829022897362143E-01    0.0000000000000000E+00    0.0000000000000000E+00    0.4725493511054858E+00    0.8383705194152777E-02    0.0000000000000000E+00    0.0000000000000000E+00    0.0000000000000000E+00    0.0000000000000000E+00    0.0000000000000000E+00
 -0.5000  -0.4830   -0.2303624980650547E-01    0.0000000000000000E+00    0.0000000000000000E+00    0.4823094627118097E+00    0.2333158975048785E-01    0.0000000000000000E+00    0.0000000000000000E+00    0.0000000000000000E+00    0.0000000000000000E+00    0.0000000000000000E+00
 -0.5000  -0.4904   -0.2675126932908866E-01    0.0000000000000000E+00    0.0000000000000000E+00    0.4900060544658104E+00    0.1451094378266009E-01    0.0000000000000000E+00    0.0000000000000000E+00    0.0000000000000000E+00    0.0000000000000000E+00    0.0000000000000000E+00
 -0.5000  -0.4957   -0.2939737537646369E-01    0.0000000000000000E+00    0.0000000000000000E+00    0.4955472712053653E+00    0.3236470274926470E-02    0.0000000000000000E+00    0.0000000000000000E+00    0.0000000000000000E+00    0.0000000000000000E+00    0.0000000000000000E+00
 -0.5000  -0.4989   -0.3098519577196200E-01    0.0000000000000000E+00    0.0000000000000000E+00    0.4988854487444039E+00   -0.1591756273989346E-03    0.0000000000000000E+00    0.0000000000000000E+00    0.0000000000000000E+00    0.0000000000000000E+00    0.0000000000000000E+00
 -0.5000  -0.5000   -0.3151823315532545E-01    0.0000000000000000E+00    0.0000000000000000E+00    0.5000000000000000E+00    0.0000000000000000E+00    0.0000000000000000E+00    0.0000000000000000E+00    0.0000000000000000E+00    0.0000000000000000E+00    0.0000000000000000E+00
 -0.4989   0.5000    0.2264241330684845E-01    0.0000000000000000E+00    0.0000000000000000E+00   -0.5000000000000000E+00   -0.3796843551449491E-03    0.0000000000000000E+00    0.0000000000000000E+00    0.0000000000000000E+00    0.0000000000000000E+00    0.0000000000000000E+00
 -0.4989   0.4989    0.2317292166046667E-01    0.3636900461021372E-06   -0.3637011510925551E-06   -0.4963847132084944E+00   -0.5592901945341026E-03   -0.2589622566410345E-09   -0.4117190036167021E-09   -0.3757958571062869E-12   -0.3701340449413504E-12    0.4704415839090065E-11
 -0.4989   0.4957    0.2475863565583974E-01    0.3298420492110314E-05   -0.4470326857804918E-06   -0.4855556721761672E+00   -0.1427193484874733E-02   -0.2014132847640278E-08   -0.4141967515497447E-09   -0.6912821010063297E-12   -0.5432495341702211E-12    0.1852392523225832E-10
 -0.4989   0.4904    0.2736387766587469E-01   -0.2277431159891765E-05    0.1504612533110099E-05   -0.4675710204041066E+00    0.5466026778840812E-02    0.5993801640053805E-09   -0.4165414410964297E-09   -0.7543132785059470E-12   -0.4991024954437151E-12    0.4192947161349436E-10
 -0.4989   0.4830    0.3085678339286536E-01   -0.4110417789081083E-04    0.3981744849632523E-05   -0.4425504206153306E+00    0.4122677042207182E-01    0.2151871997810924E-07   -0.4185358136454820E-09   -0.7243025623715482E-12   -0.5140714243179190E-12    0.7519339404599146E-10
 -0.4989   0.4735    0.3498174354807451E-01   -0.1306379589346343E-03    0.5978011579197958E-05   -0.4106976351411757E+00    0.1223774258108028E+00    0.6986060502264179E-07   -0.4207012637563734E-09   -0.6148316447976421E-12   -0.5237026090565422E-12    0.1198683097225484E-09
 -0.4989   0.4619    0.3940155085269630E-01   -0.2696375250268922E-03    0.6824536248691845E-05   -0.3723141038200735E+00    0.2483546331362052E+00    0.1450164160903398E-06   -0.4232355767935791E-09   -0.4057448821370713E-12   -0.5520479906540032E-12    0.1784901965812269E-09
 -0.4989   0.4484    0.4374510042994183E-01   -0.4374294671471149E-03    0.6392516719154647E-05   -0.3278067771044092E+00    0.4007280715819191E+00    0.2356269104829881E-06   -0.4264876889148450E-09   -0.6130512764102036E-13   -0.5425521143465062E-12    0.2554986777703050E-09
 -0.4989   0.4330    0.4765235956419696E-01   -0.5984508064380627E-03    0.4738843194507661E-05   -0.2777161075102160E+00    0.5470314531475891E+00    0.3226146768663348E-06   -0.4308003381109371E-09    0.4960129529330004E-12   -0.5395892066495378E-12    0.3565810736960717E-09
 -0.4989   0.4157    0.5080929392504412E-01   -0.7105711821769955E-03    0.2209280955019237E-05   -0.2228017216056265E+00    0.6485904456189729E+00    0.3832154086457897E-06   -0.4366494587779157E-09    0.1383670955590333E-11   -0.5608413039537297E-12    0.4883613548278820E-09
 -0.4989   0.3967    0.5296934091229370E-01   -0.7354268645672040E-03   -0.7588324715162162E-06   -0.1642076131461363E+00    0.6699161610512080E+00    0.3968964984604720E-06   -0.4445407440593907E-09    0.2720310088299982E-11   -0.5658867471836082E-12    0.6525524356981727E-09
 -0.4989   0.3759    0.5395701991707452E-01   -0.6478473692334922E-03   -0.3664201857361041E-05   -0.1036767687827285E+00    0.5875223162705011E+00    0.3501204327993517E-06   -0.4550588872734296E-09    0.4574715606331381E-11   -0.5833736271831924E-12    0.8420202035619440E-09
 -0.4989   0.3536    0.5366155175803788E-01   -0.4400892593156381E-03   -0.6171850327446026E-05   -0.4370047121765402E-01    0.3938506871653750E+00    0.2388527254795157E-06   -0.4687289324040167E-09    0.6924308348921215E-11   -0.5740824482458606E-12    0.1031263394124515E-08
 -0.4989   0.3297    0.5203511381355894E-01   -0.1185850203062707E-03   -0.8152182153573594E-05    0.1258914162710984E-01    0.9448923621030479E-01    0.6657250242895404E-07   -0.4855432028660900E-09    0.9683989721231967E-11   -0.5213399156822618E-12    0.1172499985990783E-08
 -0.4989   0.3044    0.4910667798127685E-01    0.3047890195793253E-03   -0.9717324351944316E-05    0.6194409242713188E-01   -0.2998034833078851E+00   -0.1602626276060644E-06   -0.5042537637445221E-09    0.1274627625669211E-10   -0.5199521369014803E-12    0.1203633442914409E-08
 -0.4989   0.2778    0.4500222274911975E-01    0.8211874130858683E-03   -0.1105745435089195E-04    0.1018761524958185E+00   -0.7808426879997281E+00   -0.4369355231717581E-06   -0.5217217075026426E-09    0.1603081556389441E-10   -0.4608188830523829E-12    0.1070280572501581E-08
 -0.4989   0.2500    0.3994984487673611E-01    0.1428321147828013E-02   -0.1234856184545674E-04    0.1314830203879100E+00   -0.1346353960271125E+01   -0.7622179546462977E-06   -0.5333029885756790E-09    0.1944477912019238E-10   -0.3627514955084621E-12    0.7538228721792883E-09
 -0.4989   0.2211    0.3425875903931963E-01    0.2128454031325196E-02   -0.1364944175434972E-04    0.1517060389362986E+00   -0.1998142826032389E+01   -0.1137405175271698E-05   -0.5340074875348488E-09    0.2290250628034229E-10   -0.2650241137658327E-12    0.2849698463314176E-09
 -0.4989   0.1913    0.2828555535068639E-01    0.2923186028450833E-02   -0.1491689304635696E-04    0.1648223421660209E+00   -0.2737312354133635E+01   -0.1563405834618742E-05   -0.5197802743772684E-09    0.2630156509253467E-10   -0.1583316810993551E-12   -0.2668227236379828E-09
 -0.4989   0.1607    0.2240745620862518E-01    0.3807342305541817E-02   -0.1599985736248357E-04    0.1735043921114758E+00   -0.3558611794181830E+01   -0.2037548764222106E-05   -0.4883232256058800E-09    0.2948622769560760E-10   -0.4142519660632615E-13   -0.8231733940322616E-09
 -0.4989   0.1294    0.1700740513759107E-01    0.4764047755603236E-02   -0.1670550604433650E-04    0.1800152709914628E+00   -0.4445958523305467E+01   -0.2550845126121209E-05   -0.4389415775296612E-09    0.3218453628606177E-10    0.8798517470154366E-13   -0.1323691910855990E-08
 -0.4989   0.0975    0.1246032692756774E-01    0.5762801134892935E-02   -0.1683798172811220E-04    0.1858726349547882E+00   -0.5370728717774514E+01   -0.3087008942056986E-05   -0.3725682262700758E-09    0.3401384035539579E-10    0.1933869731018945E-12   -0.1736770743497248E-08
 -0.4989   0.0653    0.9110110646662326E-02    0.6761149908388536E-02   -0.1626048572584022E-04    0.1919229494888494E+00   -0.6293391777346550E+01   -0.3623280122613231E-05   -0.2915053268215395E-09    0.3454284080994796E-10    0.2615407890260713E-12   -0.2054997099137229E-08
 -0.4989   0.0327    0.7235984945534742E-02    0.7708819116437108E-02   -0.1489608705962821E-04    0.1985796508998486E+00   -0.7167362948605107E+01   -0.4132687367202101E-05   -0.1993746556738785E-09    0.3349229227289641E-10    0.3751582378086482E-12   -0.2285051842187968E-08
 -0.4989   0.0000    0.7014865533950316E-02    0.8552522304568516E-02   -0.1273235596322822E-04    0.2060349134792218E+00   -0.7943469747048654E+01   -0.4586583611850134E-05   -0.1007103810068966E-09    0.3076355836739708E-10    0.3991459940344555E-12   -0.2438952888608736E-08
 -0.4989  -0.0327    0.8487807371790326E-02    0.9240191372326911E-02   -0.9793301186844385E-05    0.2143846914685609E+00   -0.8573848844155801E+01   -0.4956958523808408E-05   -0.6739747648865091E-12    0.2652245090217775E-10    0.3894662370385049E-12   -0.2529059045519588E-08
 -0.4989  -0.0653    0.1153664175875886E-01    0.9724442646868357E-02   -0.6141088496300948E-05    0.2236843744090468E+00   -0.9015131598747953E+01   -0.5218272392107723E-05    0.9561100522414989E-10    0.2105482455050378E-10    0.3153033389935445E-12   -0.2565828560036065E-08
 -0.4989  -0.0975    0.1587475290190019E-01    0.9965842133686304E-02   -0.1874049514238765E-05    0.2339675139155126E+00   -0.9231431685262081E+01   -0.5349240869550364E-05    0.1835344632349079E-09    0.1481825773197443E-10    0.2292254927538373E-12   -0.2557740933113728E-08
 -0.4989  -0.1294    0.2105589028169646E-01    0.9936719394661161E-02    0.2846088765821858E-05    0.2452493205024985E+00   -0.9197820023208349E+01   -0.5334874671663433E-05    0.2595666051888323E-09    0.8330058864913781E-11    0.9054736127556140E-13   -0.2511592583215316E-08
 -0.4989  -0.1607    0.2650555682769279E-01    0.9625713768141265E-02    0.7779890033572692E-05    0.2575251347251201E+00   -0.8904453666199474E+01   -0.5168947539828170E-05    0.3216557107471596E-09    0.2125133402586243E-11   -0.7187306305667107E-13   -0.2433094319770346E-08
 -0.4989  -0.1913    0.3157804224682480E-01    0.9042317806932839E-02    0.1259981548652253E-04    0.2707679591173006E+00   -0.8360662603776566E+01   -0.4856452884693093E-05    0.3695099434763982E-09   -0.3265498982329973E-11   -0.2853481340103770E-12   -0.2326871030924882E-08
 -0.4989  -0.2211    0.3563646084648846E-01    0.8219733053085699E-02    0.1691898658618739E-04    0.2849266855053656E+00   -0.7597482496377030E+01   -0.4415156232335665E-05    0.4045029242116804E-09   -0.7427669590498454E-11   -0.4710953849240695E-12   -0.2197040722962118E-08
 -0.4989  -0.2500    0.3814365450614807E-01    0.7214089668334509E-02    0.2034764212068969E-04    0.2999256081300640E+00   -0.6666838524768456E+01   -0.3875203467394200E-05    0.4294318442510381E-09   -0.1006245087253888E-10   -0.6348116476928567E-12   -0.2047807347305142E-08
 -0.4989  -0.2778    0.3874317917089213E-01    0.6098790378054964E-02    0.2257496501612781E-04    0.3156650359478747E+00   -0.5636321980674037E+01   -0.3276064019433390E-05    0.4478616227876486E-09   -0.1107819391776843E-10   -0.8246875404793741E-12   -0.1883396869017950E-08
 -0.4989  -0.3044    0.3730754768548940E-01    0.4954483825765478E-02    0.2344336781330352E-04    0.3320220470918208E+00   -0.4579987137425312E+01   -0.2661159910995281E-05    0.4632717195973690E-09   -0.1063646393184570E-10   -0.9380274335057948E-12   -0.1707327322922336E-08
 -0.4989  -0.3297    0.3393964541166127E-01    0.3857056484837515E-02    0.2298310159185512E-04    0.3488499091794197E+00   -0.3567420035067039E+01   -0.2071346113357853E-05    0.4782775703260356E-09   -0.9069744955070291E-11   -0.1045080688655275E-11   -0.1523788059273889E-08
 -0.4989  -0.3536    0.2892920889521861E-01    0.2867093898407213E-02    0.2139866524122797E-04    0.3659749088537870E+00   -0.2654124602356738E+01   -0.1539275562448383E-05    0.4943088993680789E-09   -0.6836281540856248E-11   -0.1090599832664907E-11   -0.1337411204352379E-08
 -0.4989  -0.3759    0.2268194581530949E-01    0.2023681968419177E-02    0.1899870709780515E-04    0.3831906641574760E+00   -0.1875923629328453E+01   -0.1085980490107729E-05    0.5114631218550159E-09   -0.4412747944826378E-11   -0.1120437076451708E-11   -0.1151936813298393E-08
 -0.4989  -0.3967    0.1564499472638610E-01    0.1343636060662488E-02    0.1612186891877685E-04    0.4002522385376376E+00   -0.1248228374446984E+01   -0.7205435006455675E-06    0.5289916178707887E-09   -0.2170819080049569E-11   -0.1123573456496274E-11   -0.9716474239779282E-09
 -0.4989  -0.4157    0.8248355117829955E-02    0.8251723114237013E-03    0.1305247148207002E-04    0.4168744614398343E+00   -0.7694296457901064E+00   -0.4419671872807540E-06    0.5457312518553081E-09   -0.3685957788990279E-12   -0.1104782931804493E-11   -0.8002035579296463E-09
 -0.4989  -0.4330    0.8705126165480317E-03    0.4538165862343460E-03    0.9998712005052020E-05    0.4327391688108030E+00   -0.4262207008264076E+00   -0.2425036600869203E-06    0.5606382996736770E-09    0.8891117009302008E-12   -0.1091654544538301E-11   -0.6407453213841396E-09
 -0.4989  -0.4484   -0.6173425466429028E-02    0.2081945041404576E-03    0.7070754434093029E-05    0.4475135263960520E+00   -0.1989369187034830E+00   -0.1106040129199305E-06    0.5729827029510304E-09    0.1617636580242277E-11   -0.1072246458289072E-11   -0.4952753086123751E-09
 -0.4989  -0.4619   -0.1262982981908486E-01    0.6408971829074260E-04    0.4352492805888535E-05    0.4608768247938796E+00   -0.6515922392998970E-01   -0.3333227764701566E-07    0.5825898079930836E-09    0.1911613228822162E-11   -0.1061359333753842E-11   -0.3668716762675328E-09
 -0.4989  -0.4735   -0.1829987828444015E-01   -0.3715650514376216E-05    0.1926658828836744E-05    0.4725485491497032E+00   -0.1522401821940171E-02    0.2930990479243012E-08    0.5896189396101259E-09    0.1914780833889296E-11   -0.1032236796039143E-11   -0.2563694282906037E-09
 -0.4989  -0.4830   -0.2303650444923471E-01   -0.2111141288219405E-04    0.2789474919535400E-07    0.4823089189867034E+00    0.1606286286361314E-01    0.1195412728644046E-07    0.5947885222540306E-09    0.1769334678769496E-11   -0.1028968143329534E-11   -0.1647618825227626E-09
 -0.4989  -0.4904   -0.2674641283460397E-01   -0.1378755974332990E-04   -0.1055874765924355E-05    0.4900057398154367E+00    0.1117791175338178E-01    0.7730992852865984E-08    0.5988384449776007E-09    0.1589131604085026E-11   -0.9880278019347433E-12   -0.9286617308479350E-10
 -0.4989  -0.4957   -0.2939350232534589E-01   -0.3506139496120930E-05   -0.9904568715683814E-06    0.4955471301375123E+00    0.3430507050568855E-02    0.1828533057158559E-08    0.6033542428694749E-09    0.1386268595575391E-11   -0.1057846952395858E-11   -0.4136316311166566E-10
 -0.4989  -0.4989   -0.3098356471826353E-01   -0.6791692873039361E-07   -0.6822034071250777E-07    0.4988854134344153E+00    0.4472285545113222E-03    0.6134778486926233E-10    0.6081862521738722E-09    0.7253556479416834E-12   -0.7287399850230969E-12   -0.1085491047633606E-10
 -0.4989  -0.5000   -0.3151660289926386E-01    0.0000000000000000E+00    0.0000000000000000E+00    0.5000000000000000E+00   -0.1585986075639224E-03    0.0000000000000000E+00    0.0000000000000000E+00    0.0000000000000000E+00    0.0000000000000000E+00    0.0000000000000000E+00
 -0.4957   0.5000    0.2262935643198173E-01    0.0000000000000000E+00    0.0000000000000000E+00   -0.5000000000000000E+00   -0.4673306128210953E-02    0.0000000000000000E+00    0.0000000000000000E+00    0.0000000000000000E+00    0.0000000000000000E+00    0.0000000000000000E+00
 -0.4957   0.4989    0.2316176403759768E-01    0.4471327628946513E-06   -0.3298807240223045E-05   -0.4963837069589701E+00   -0.1427728749693177E-02   -0.2014334908076235E-08   -0.4141271352535100E-09   -0.5309533195052563E-12   -0.6835597626125844E-12    0.4586054897382646E-11
 -0.4957   0.4957    0.2474747223055683E-01   -0.8547755306537577E-06    0.8567214033348366E-06   -0.4855516889159334E+00    0.6810785151487250E-02   -0.1017034926375803E-07   -0.4150558325852205E-09   -0.1630483508624492E-11   -0.1628990345392545E-11    0.1858465009489663E-10
 -0.4957   0.4904    0.2733800314491214E-01   -0.3881312355813032E-04    0.2582021656692160E-04   -0.4675623702583414E+00    0.2138288744617205E-01    0.5699547503156964E-07   -0.4166920680032105E-09   -0.2332648831038231E-11   -0.1978762639853748E-11    0.4196540597661835E-10
 -0.4957   0.4830    0.3080368908458534E-01   -0.1907084071100974E-03    0.6093582711299588E-04   -0.4425360927081468E+00    0.5505751704028476E-01    0.3846807686104924E-06   -0.4185474987428162E-09   -0.2485856138989551E-11   -0.2116726932621660E-11    0.7520265139782101E-10
 -0.4957   0.4735    0.3490417562428108E-01   -0.5211898165357213E-03    0.9005891736195392E-04   -0.4106773933055448E+00    0.1227173524432267E+00    0.1116464350775952E-05   -0.4206104631254703E-09   -0.2206527495440813E-11   -0.2195282150507794E-11    0.1200204276241568E-09
 -0.4957   0.4619    0.3931223817635030E-01   -0.1031764430064094E-02    0.1031736385576798E-03   -0.3722879622741618E+00    0.2271180594542201E+00    0.2250279809901364E-05   -0.4230957598161389E-09   -0.1495522455874365E-11   -0.2270312410290742E-11    0.1784632632645389E-09
 -0.4957   0.4484    0.4366111557264057E-01   -0.1649592167716292E-02    0.9669543777347860E-04   -0.3277740394616337E+00    0.3544255524344638E+00    0.3620964348226680E-05   -0.4262694433543324E-09   -0.2346525751484307E-12   -0.2354175882013365E-11    0.2555306001517099E-09
 -0.4957   0.4330    0.4759021358980213E-01   -0.2242616417284027E-02    0.7163933441356730E-04   -0.2776744402330849E+00    0.4768961735031191E+00    0.4936812854123739E-05   -0.4304851544678634E-09    0.1863800780377289E-11   -0.2480432526041909E-11    0.3567244451219143E-09