 title="result"
 variables="x","y","P","u","v","t","omega","psi","RES1","RES2","RES3","RES4"
zone,j= 49,i= 49,f=point
 -0.4450   0.5495    0.2437593845809920E-01    0.0000000000000000E+00    0.0000000000000000E+00   -0.5000000000000000E+00    0.0000000000000000E+00    0.0000000000000000E+00    0.0000000000000000E+00    0.0000000000000000E+00    0.0000000000000000E+00    0.0000000000000000E+00
 -0.4451   0.5485    0.2490400934670270E-01    0.0000000000000000E+00    0.0000000000000000E+00   -0.4960370859163223E+00   -0.2350403284412477E-03    0.0000000000000000E+00    0.0000000000000000E+00    0.0000000000000000E+00    0.0000000000000000E+00    0.0000000000000000E+00
 -0.4454   0.5453    0.2647354051228891E-01    0.0000000000000000E+00    0.0000000000000000E+00   -0.4841669746560050E+00   -0.4355002062338394E-02    0.0000000000000000E+00    0.0000000000000000E+00    0.0000000000000000E+00    0.0000000000000000E+00    0.0000000000000000E+00
 -0.4460   0.5400    0.2903791251001647E-01    0.0000000000000000E+00    0.0000000000000000E+00   -0.4644552945095124E+00   -0.7623052796097770E-02    0.0000000000000000E+00    0.0000000000000000E+00    0.0000000000000000E+00    0.0000000000000000E+00    0.0000000000000000E+00
 -0.4468   0.5326    0.3247054417152190E-01    0.0000000000000000E+00    0.0000000000000000E+00   -0.4370421444278453E+00    0.5599392052924181E-02    0.0000000000000000E+00    0.0000000000000000E+00    0.0000000000000000E+00    0.0000000000000000E+00    0.0000000000000000E+00
 -0.4478   0.5231    0.3653764764781400E-01    0.0000000000000000E+00    0.0000000000000000E+00   -0.4021808059180909E+00    0.4733937582088263E-01    0.0000000000000000E+00    0.0000000000000000E+00    0.0000000000000000E+00    0.0000000000000000E+00    0.0000000000000000E+00
 -0.4490   0.5117    0.4092930914915423E-01    0.0000000000000000E+00    0.0000000000000000E+00   -0.3602796850879994E+00    0.1183406694255603E+00    0.0000000000000000E+00    0.0000000000000000E+00    0.0000000000000000E+00    0.0000000000000000E+00    0.0000000000000000E+00
 -0.4504   0.4982    0.4529267753874755E-01    0.0000000000000000E+00    0.0000000000000000E+00   -0.3119480004750666E+00    0.2073051247806287E+00    0.0000000000000000E+00    0.0000000000000000E+00    0.0000000000000000E+00    0.0000000000000000E+00    0.0000000000000000E+00
 -0.4520   0.4829    0.4926662194201733E-01    0.0000000000000000E+00    0.0000000000000000E+00   -0.2580580540011531E+00    0.2932432177082737E+00    0.0000000000000000E+00    0.0000000000000000E+00    0.0000000000000000E+00    0.0000000000000000E+00    0.0000000000000000E+00
 -0.4538   0.4657    0.5251252606393208E-01    0.0000000000000000E+00    0.0000000000000000E+00   -0.1998381086174699E+00    0.3498468607215769E+00    0.0000000000000000E+00    0.0000000000000000E+00    0.0000000000000000E+00    0.0000000000000000E+00    0.0000000000000000E+00
 -0.4558   0.4468    0.5474202580915240E-01    0.0000000000000000E+00    0.0000000000000000E+00   -0.1389887148324076E+00    0.3507450993885219E+00    0.0000000000000000E+00    0.0000000000000000E+00    0.0000000000000000E+00    0.0000000000000000E+00    0.0000000000000000E+00
 -0.4580   0.4261    0.5573820043405860E-01    0.0000000000000000E+00    0.0000000000000000E+00   -0.7777146420243819E-01    0.2747480505650290E+00    0.0000000000000000E+00    0.0000000000000000E+00    0.0000000000000000E+00    0.0000000000000000E+00    0.0000000000000000E+00
 -0.4603   0.4039    0.5537031711571534E-01    0.0000000000000000E+00    0.0000000000000000E+00   -0.1896849219739269E-01    0.1092524740292682E+00    0.0000000000000000E+00    0.0000000000000000E+00    0.0000000000000000E+00    0.0000000000000000E+00    0.0000000000000000E+00
 -0.4628   0.3801    0.5360263316013188E-01    0.0000000000000000E+00    0.0000000000000000E+00    0.3440513349014934E-01   -0.1497790208138721E+00    0.0000000000000000E+00    0.0000000000000000E+00    0.0000000000000000E+00    0.0000000000000000E+00    0.0000000000000000E+00
 -0.4654   0.3550    0.5049945509616607E-01    0.0000000000000000E+00    0.0000000000000000E+00    0.7967533350644913E-01   -0.5014196329455169E+00    0.0000000000000000E+00    0.0000000000000000E+00    0.0000000000000000E+00    0.0000000000000000E+00    0.0000000000000000E+00
 -0.4682   0.3285    0.4622360673993808E-01    0.0000000000000000E+00    0.0000000000000000E+00    0.1152165459472713E+00   -0.9446175425055851E+00    0.0000000000000000E+00    0.0000000000000000E+00    0.0000000000000000E+00    0.0000000000000000E+00    0.0000000000000000E+00
 -0.4711   0.3009    0.4102371403576744E-01    0.0000000000000000E+00    0.0000000000000000E+00    0.1409484926119662E+00   -0.1481090420788578E+01    0.0000000000000000E+00    0.0000000000000000E+00    0.0000000000000000E+00    0.0000000000000000E+00    0.0000000000000000E+00
 -0.4741   0.2722    0.3521024523482682E-01    0.0000000000000000E+00    0.0000000000000000E+00    0.1582974308797084E+00   -0.2114519364465168E+01    0.0000000000000000E+00    0.0000000000000000E+00    0.0000000000000000E+00    0.0000000000000000E+00    0.0000000000000000E+00
 -0.4773   0.2426    0.2913014842993981E-01    0.0000000000000000E+00    0.0000000000000000E+00    0.1696024200919790E+00   -0.2846678785973746E+01    0.0000000000000000E+00    0.0000000000000000E+00    0.0000000000000000E+00    0.0000000000000000E+00    0.0000000000000000E+00
 -0.4805   0.2121    0.2314962995355134E-01    0.0000000000000000E+00    0.0000000000000000E+00    0.1773063744669736E+00   -0.3672427103660926E+01    0.0000000000000000E+00    0.0000000000000000E+00    0.0000000000000000E+00    0.0000000000000000E+00    0.0000000000000000E+00
 -0.4837   0.1810    0.1764461600031758E-01    0.0000000000000000E+00    0.0000000000000000E+00    0.1833581178284005E+00   -0.4575765277794981E+01    0.0000000000000000E+00    0.0000000000000000E+00    0.0000000000000000E+00    0.0000000000000000E+00    0.0000000000000000E+00
 -0.4871   0.1493    0.1298903114599679E-01    0.0000000000000000E+00    0.0000000000000000E+00    0.1890193218750057E+00   -0.5528523854600254E+01    0.0000000000000000E+00    0.0000000000000000E+00    0.0000000000000000E+00    0.0000000000000000E+00    0.0000000000000000E+00
 -0.4904   0.1172    0.9532927690887202E-02    0.0000000000000000E+00    0.0000000000000000E+00    0.1949802721107491E+00   -0.6491983083043299E+01    0.0000000000000000E+00    0.0000000000000000E+00    0.0000000000000000E+00    0.0000000000000000E+00    0.0000000000000000E+00
 -0.4938   0.0848    0.7570225994056232E-02    0.0000000000000000E+00    0.0000000000000000E+00    0.2015774326189025E+00   -0.7420400264499782E+01    0.0000000000000000E+00    0.0000000000000000E+00    0.0000000000000000E+00    0.0000000000000000E+00    0.0000000000000000E+00
 -0.4973   0.0523    0.7302498328472251E-02    0.0000000000000000E+00    0.0000000000000000E+00    0.2089709058583322E+00   -0.8264977981124735E+01    0.0000000000000000E+00    0.0000000000000000E+00    0.0000000000000000E+00    0.0000000000000000E+00    0.0000000000000000E+00
 -0.5007   0.0197    0.8805908717725821E-02    0.0000000000000000E+00    0.0000000000000000E+00    0.2172449132439836E+00   -0.8977217776788203E+01    0.0000000000000000E+00    0.0000000000000000E+00    0.0000000000000000E+00    0.0000000000000000E+00    0.0000000000000000E+00
 -0.5041  -0.0126    0.1200629072648171E-01    0.0000000000000000E+00    0.0000000000000000E+00    0.2264510846002624E+00   -0.9511519398466611E+01    0.0000000000000000E+00    0.0000000000000000E+00    0.0000000000000000E+00    0.0000000000000000E+00    0.0000000000000000E+00
 -0.5075  -0.0447    0.1666516062738411E-01    0.0000000000000000E+00    0.0000000000000000E+00    0.2366222847547833E+00   -0.9827612036850461E+01    0.0000000000000000E+00    0.0000000000000000E+00    0.0000000000000000E+00    0.0000000000000000E+00    0.0000000000000000E+00
 -0.5108  -0.0764    0.2238010422488620E-01    0.0000000000000000E+00    0.0000000000000000E+00    0.2477744661146437E+00   -0.9893680947348045E+01    0.0000000000000000E+00    0.0000000000000000E+00    0.0000000000000000E+00    0.0000000000000000E+00    0.0000000000000000E+00
 -0.5141  -0.1076    0.2860463487082173E-01    0.0000000000000000E+00    0.0000000000000000E+00    0.2599045569442575E+00   -0.9690648944891173E+01    0.0000000000000000E+00    0.0000000000000000E+00    0.0000000000000000E+00    0.0000000000000000E+00    0.0000000000000000E+00
 -0.5173  -0.1380    0.3469319194671248E-01    0.0000000000000000E+00    0.0000000000000000E+00    0.2729876091409620E+00   -0.9217220347073834E+01    0.0000000000000000E+00    0.0000000000000000E+00    0.0000000000000000E+00    0.0000000000000000E+00    0.0000000000000000E+00
 -0.5204  -0.1677    0.3997283620457242E-01    0.0000000000000000E+00    0.0000000000000000E+00    0.2869746051962521E+00   -0.8494232544172695E+01    0.0000000000000000E+00    0.0000000000000000E+00    0.0000000000000000E+00    0.0000000000000000E+00    0.0000000000000000E+00
 -0.5234  -0.1964    0.4383431016119620E-01    0.0000000000000000E+00    0.0000000000000000E+00    0.3017915676196552E+00   -0.7566216931940112E+01    0.0000000000000000E+00    0.0000000000000000E+00    0.0000000000000000E+00    0.0000000000000000E+00    0.0000000000000000E+00
 -0.5263  -0.2240    0.4582399963382369E-01    0.0000000000000000E+00    0.0000000000000000E+00    0.3173399832519010E+00   -0.6498307290140756E+01    0.0000000000000000E+00    0.0000000000000000E+00    0.0000000000000000E+00    0.0000000000000000E+00    0.0000000000000000E+00
 -0.5291  -0.2504    0.4571194527534845E-01    0.0000000000000000E+00    0.0000000000000000E+00    0.3334978157754511E+00   -0.5368067471826715E+01    0.0000000000000000E+00    0.0000000000000000E+00    0.0000000000000000E+00    0.0000000000000000E+00    0.0000000000000000E+00
 -0.5317  -0.2756    0.4351497119585498E-01    0.0000000000000000E+00    0.0000000000000000E+00    0.3501197359337083E+00   -0.4253876707995905E+01    0.0000000000000000E+00    0.0000000000000000E+00    0.0000000000000000E+00    0.0000000000000000E+00    0.0000000000000000E+00
 -0.5342  -0.2994    0.3946893398682901E-01    0.0000000000000000E+00    0.0000000000000000E+00    0.3670351239705659E+00   -0.3223182457515954E+01    0.0000000000000000E+00    0.0000000000000000E+00    0.0000000000000000E+00    0.0000000000000000E+00    0.0000000000000000E+00
 -0.5366  -0.3216    0.3396248278104612E-01    0.0000000000000000E+00    0.0000000000000000E+00    0.3840433644801890E+00   -0.2324086835977727E+01    0.0000000000000000E+00    0.0000000000000000E+00    0.0000000000000000E+00    0.0000000000000000E+00    0.0000000000000000E+00
 -0.5387  -0.3422    0.2745663166199886E-01    0.0000000000000000E+00    0.0000000000000000E+00    0.4009080040318095E+00   -0.1582286506298536E+01    0.0000000000000000E+00    0.0000000000000000E+00    0.0000000000000000E+00    0.0000000000000000E+00    0.0000000000000000E+00
 -0.5407  -0.3612    0.2041421631972148E-01    0.0000000000000000E+00    0.0000000000000000E+00    0.4173536761460081E+00   -0.1003175714526524E+01    0.0000000000000000E+00    0.0000000000000000E+00    0.0000000000000000E+00    0.0000000000000000E+00    0.0000000000000000E+00
 -0.5425  -0.3784    0.1325339544707080E-01    0.0000000000000000E+00    0.0000000000000000E+00    0.4330707462168213E+00   -0.5771801813260147E+00    0.0000000000000000E+00    0.0000000000000000E+00    0.0000000000000000E+00    0.0000000000000000E+00    0.0000000000000000E+00
 -0.5441  -0.3937    0.6327126643880832E-02    0.0000000000000000E+00    0.0000000000000000E+00    0.4477309332896231E+00   -0.2858094589475681E+00    0.0000000000000000E+00    0.0000000000000000E+00    0.0000000000000000E+00    0.0000000000000000E+00    0.0000000000000000E+00
 -0.5455  -0.4071   -0.7861124247316452E-04    0.0000000000000000E+00    0.0000000000000000E+00    0.4610127132075169E+00   -0.1063252733377355E+00    0.0000000000000000E+00    0.0000000000000000E+00    0.0000000000000000E+00    0.0000000000000000E+00    0.0000000000000000E+00
 -0.5468  -0.4186   -0.5738298219008842E-02    0.0000000000000000E+00    0.0000000000000000E+00    0.4726301239347082E+00   -0.1410646076602992E-01    0.0000000000000000E+00    0.0000000000000000E+00    0.0000000000000000E+00    0.0000000000000000E+00    0.0000000000000000E+00
 -0.5477  -0.4281   -0.1048236418924097E-01    0.0000000000000000E+00    0.0000000000000000E+00    0.4823557732132034E+00    0.1704540158602087E-01    0.0000000000000000E+00    0.0000000000000000E+00    0.0000000000000000E+00    0.0000000000000000E+00    0.0000000000000000E+00
 -0.5485  -0.4354   -0.1419915874425384E-01    0.0000000000000000E+00    0.0000000000000000E+00    0.4900305066736977E+00    0.1446495734470473E-01    0.0000000000000000E+00    0.0000000000000000E+00    0.0000000000000000E+00    0.0000000000000000E+00    0.0000000000000000E+00
 -0.5491  -0.4407   -0.1684137607815979E-01    0.0000000000000000E+00    0.0000000000000000E+00    0.4955578658816723E+00    0.3816130573424784E-02    0.0000000000000000E+00    0.0000000000000000E+00    0.0000000000000000E+00    0.0000000000000000E+00    0.0000000000000000E+00
 -0.5494  -0.4439   -0.1842182379602448E-01    0.0000000000000000E+00    0.0000000000000000E+00    0.4988880829762548E+00   -0.1328433423085220E-03    0.0000000000000000E+00    0.0000000000000000E+00    0.0000000000000000E+00    0.0000000000000000E+00    0.0000000000000000E+00
 -0.5495  -0.4450   -0.1895147485156701E-01    0.0000000000000000E+00    0.0000000000000000E+00    0.5000000000000000E+00    0.0000000000000000E+00    0.0000000000000000E+00    0.0000000000000000E+00    0.0000000000000000E+00    0.0000000000000000E+00    0.0000000000000000E+00
 -0.4439   0.5494    0.2443404277828063E-01    0.0000000000000000E+00    0.0000000000000000E+00   -0.5000000000000000E+00   -0.2351719153109426E-03    0.0000000000000000E+00    0.0000000000000000E+00    0.0000000000000000E+00    0.0000000000000000E+00    0.0000000000000000E+00
 -0.4440   0.5483    0.2496189298169866E-01    0.2852055226011355E-06   -0.2852933091224429E-06   -0.4960370025543716E+00   -0.5393822640120227E-03   -0.1992078883418917E-09    0.2121483614865929E-09    0.5322713976388740E-12    0.5228870721823986E-12   -0.4034908583465391E-11
 -0.4444   0.5452    0.2653013772174579E-01    0.3621395002156067E-05   -0.7007016205858454E-06   -0.4841666424453067E+00   -0.2443417240157595E-02   -0.2079477274628365E-08    0.2156755247485764E-09    0.9717643356665917E-12    0.7720985309433992E-12   -0.1667282024248040E-10
 -0.4449   0.5399    0.2908848691283238E-01    0.5628579882965653E-05    0.2636510424654483E-06   -0.4644545591831989E+00   -0.2817227983935158E-02   -0.3482418571293644E-08    0.2188078883661945E-09    0.9958683183652894E-12    0.7385238254276061E-12   -0.3775259098393047E-10
 -0.4457   0.5325    0.3251079448949355E-01   -0.8772549928811729E-05    0.1751451125141324E-05   -0.4370408834984870E+00    0.1081078767562019E-01    0.4234896544676987E-08    0.2208284896089430E-09    0.9231712616575294E-12    0.7598800061403566E-12   -0.6780942474193807E-10
 -0.4467   0.5230    0.3656770899372404E-01   -0.5218991612940409E-04    0.3059246429881681E-05   -0.4021789323582801E+00    0.5017660124301869E-01    0.2765863009287217E-07    0.2222964399362093E-09    0.8809914603391533E-12    0.7394588413811576E-12   -0.1089354023653399E-09
 -0.4479   0.5116    0.4095146260067171E-01   -0.1257977603485978E-03    0.3705368555875852E-05   -0.3602771195905308E+00    0.1166515462664147E+00    0.6751106888461271E-07    0.2235018142782152E-09    0.9796590622057622E-12    0.7429369619504911E-12   -0.1641447949785046E-09
 -0.4493   0.4981    0.4531023183081653E-01   -0.2180068752050520E-03    0.3548627960858321E-05   -0.3119446279635311E+00    0.1999435123094103E+00    0.1173823394370129E-06    0.2251973633612958E-09    0.1249986225637656E-11    0.7535291834948055E-12   -0.2399170688505148E-09
 -0.4509   0.4828    0.4928283941463319E-01   -0.3068690996187605E-03    0.2588206169164703E-05   -0.2580536932946974E+00    0.2799998272943060E+00    0.1655227853626010E-06    0.2282067599126969E-09    0.1629425760985015E-11    0.7506391341838281E-12   -0.3444785637296555E-09
 -0.4527   0.4656    0.5253013096626508E-01   -0.3646624786555049E-03    0.9879598724793972E-06   -0.1998325236454558E+00    0.3313660147446172E+00    0.1969418915412847E-06    0.2335699166629984E-09    0.1938817162372430E-11    0.7746477070913471E-12   -0.4881927501143579E-09
 -0.4547   0.4467    0.5476274645330716E-01   -0.3634709446069033E-03   -0.1029951966611960E-05   -0.1389816861634154E+00    0.3282376240856646E+00    0.1966999935436730E-06    0.2422852732244379E-09    0.1955414996590576E-11    0.7520728831367229E-12   -0.6796163076749906E-09
 -0.4569   0.4260    0.5576272603465253E-01   -0.2807392774968066E-03   -0.3187119319774559E-05   -0.7776292204170947E-01    0.2496818126411754E+00    0.1526516825079185E-06    0.2555062455014689E-09    0.1506725300082223E-11    0.7536280627329361E-12   -0.9177520687853047E-09
 -0.4592   0.4038    0.5539848257368168E-01   -0.1029194053619934E-03   -0.5260049312196981E-05   -0.1895867649984525E-01    0.8297595968266537E-01    0.5759551221994848E-07    0.2743601283661246E-09    0.5208194986394687E-12    0.7601697049608447E-12   -0.1183636189061588E-08
 -0.4617   0.3800    0.5363400882174214E-01    0.1744856274733247E-03   -0.7116359418734794E-05    0.3441557268369103E-01   -0.1762355050059055E+00   -0.9087917216125570E-07    0.2998508837059877E-09   -0.9696549119198039E-12    0.7523218159555256E-12   -0.1433758223257087E-08
 -0.4644   0.3549    0.5053390730783693E-01    0.5506462436224750E-03   -0.8765550603621348E-05    0.7968540818810725E-01   -0.5273398541906604E+00   -0.2922704977028127E-06    0.3319652400191053E-09   -0.2927338926816958E-11    0.7118750033896504E-12   -0.1605171606744449E-08
 -0.4672   0.3284    0.4626163853530573E-01    0.1024472552517474E-02   -0.1029286080646932E-04    0.1152252156655513E+00   -0.9693464865994534E+00   -0.5460133575569900E-06    0.3690861019589597E-09   -0.5349609644156317E-11    0.6516454043037356E-12   -0.1634509673442697E-08
 -0.4701   0.3008    0.4106628503574961E-01    0.1597661409467724E-02   -0.1179678440800224E-04    0.1409550407478010E+00   -0.1503713137912692E+01   -0.8530202082657802E-06    0.4077530084412029E-09   -0.8309491983382600E-11    0.5855177453994997E-12   -0.1484961993647449E-08
 -0.4731   0.2721    0.3525830910928016E-01    0.2273853650418995E-02   -0.1330298039450313E-04    0.1583016992502284E+00   -0.2133555049393485E+01   -0.1215310981349865E-05    0.4433366521117144E-09   -0.1192854842679836E-10    0.5214093046213009E-12   -0.1164780175089142E-08
 -0.4762   0.2424    0.2918406542027511E-01    0.3054548911622112E-02   -0.1475009400949314E-04    0.1696047569185008E+00   -0.2859902057241485E+01   -0.1633744494301640E-05    0.4711303777660270E-09   -0.1632430302045407E-10    0.3787942182142956E-12   -0.7240431778438028E-09
 -0.4794   0.2120    0.2320877933217944E-01    0.3933832071308577E-02   -0.1598998233074038E-04    0.1773073691959279E+00   -0.3676841364183569E+01   -0.2105240384870113E-05    0.4870973312198768E-09   -0.2153942128824138E-10    0.2850497615725089E-12   -0.2318667402176344E-09
 -0.4827   0.1809    0.1770723895260758E-01    0.4894257576157249E-02   -0.1684032757949147E-04    0.1833583265528113E+00   -0.4567781884193805E+01   -0.2620506906920911E-05    0.4880720272382177E-09   -0.2743730243004450E-10    0.1694200335577989E-12    0.2491076844584814E-09
 -0.4860   0.1492    0.1305238433417180E-01    0.5905539067455544E-02   -0.1712560564978724E-04    0.1890191271637761E+00   -0.5504310340138631E+01   -0.3163364366650774E-05    0.4717985446767159E-09   -0.3366971285112541E-10    0.6047939926645540E-13    0.6775354851815130E-09
 -0.4894   0.1171    0.9593564838309258E-02    0.6926337182854534E-02   -0.1672180904357202E-04    0.1949798800216022E+00   -0.6447917140006912E+01   -0.3711658727653381E-05    0.4368901317108875E-09   -0.3971663276036708E-10   -0.3473610288295959E-13    0.1034830674276344E-08
 -0.4928   0.0847    0.7624344130445290E-02    0.7908043346417261E-02   -0.1555999890616602E-04    0.2015769320214714E+00   -0.7353533768348639E+01   -0.4239311813501078E-05    0.3828803281369364E-09   -0.4502095918290649E-10   -0.1450090048038533E-12    0.1317905643123674E-08
 -0.4962   0.0522    0.7346177503895772E-02    0.8798999360525287E-02   -0.1362228366866141E-04    0.2089703266644521E+00   -0.8173449195769450E+01   -0.4718565837133884E-05    0.3105782714341032E-09   -0.4910100104282833E-10   -0.2041353197590468E-12    0.1531601123705428E-08
 -0.4996   0.0196    0.8835289666716895E-02    0.9548047257862773E-02   -0.1091917042699750E-04    0.2172442617606853E+00   -0.8860588481059082E+01   -0.5121903068125234E-05    0.2221054277995460E-09   -0.5162448246665008E-10   -0.2500014084638735E-12    0.1683564361705525E-08
 -0.5030  -0.0128    0.1201766725834983E-01    0.1010726983732232E-01   -0.7484724931675060E-05    0.2264503598636584E+00   -0.9371031083940409E+01   -0.5423514681617485E-05    0.1206780751716874E-09   -0.5244499279299930E-10   -0.2243760732767441E-12    0.1781344150311726E-08
 -0.5064  -0.0449    0.1665513733345916E-01    0.1043454935498419E-01   -0.3379451809860384E-05    0.2366214848849519E+00   -0.9666364539245837E+01   -0.5600677139773674E-05    0.1041233679138776E-10   -0.5159095373130640E-10   -0.1967245810696738E-12    0.1831849139391495E-08
 -0.5097  -0.0765    0.2234583145635183E-01    0.1049684721784721E-01    0.1283946353072347E-05    0.2477735905760244E+00   -0.9716678453933650E+01   -0.5635527726234088E-05   -0.1039617870957077E-09   -0.4916844709157431E-10   -0.1231063861961701E-12    0.1841035339802954E-08
 -0.5130  -0.1077    0.2854421919241258E-01    0.1027467795387838E-01    0.6314140737554818E-05    0.2599036071902368E+00   -0.9504650337674065E+01   -0.5517463818824412E-05   -0.2177175106865548E-09   -0.4543743159501901E-10    0.4024558464266192E-15    0.1814427203969404E-08
 -0.5162  -0.1381    0.3460616521906677E-01    0.9767349503392008E-02    0.1142038174725216E-04    0.2729865883679162E+00   -0.9030280233475004E+01   -0.5245998858087113E-05   -0.3264567366434434E-09   -0.4072103765295765E-10    0.1138950045387332E-12    0.1756949379386197E-08
 -0.5193  -0.1678    0.3986061675381623E-01    0.8997442226103077E-02    0.1622215650436887E-04    0.2869735173585916E+00   -0.8314920637517531E+01   -0.4833161091396280E-05   -0.4264980972557009E-09   -0.3538330739516482E-10    0.2572664303812644E-12    0.1673352532927108E-08
 -0.5223  -0.1965    0.4370039498755645E-01    0.8012340316737209E-02    0.2029616765869332E-04    0.3017904158960499E+00   -0.7402559415806707E+01   -0.4304377692754638E-05   -0.5152403365071834E-09   -0.2981376256983026E-10    0.3869127240818671E-12    0.1567839587324205E-08
 -0.5252  -0.2241    0.4567379780768874E-01    0.6880898980021306E-02    0.2325657606268852E-04    0.3173387684715669E+00   -0.6356704897584373E+01   -0.3696645354284078E-05   -0.5913038461646813E-09   -0.2439753954419643E-10    0.5113687251423471E-12    0.1445379657974422E-08
 -0.5280  -0.2506    0.4555213100422380E-01    0.5684831122593757E-02    0.2484638534327334E-04    0.3334965357025749E+00   -0.5252442599410617E+01   -0.3053956399154948E-05   -0.6546354083813988E-09   -0.1945682504000956E-10    0.6119132978099628E-12    0.1310607830595778E-08
 -0.5307  -0.2757    0.4335256970996652E-01    0.4506544267009746E-02    0.2499813908841192E-04    0.3501183864882393E+00   -0.4165355282072074E+01   -0.2420666290105043E-05   -0.7061220289039660E-09   -0.1521263670589690E-10    0.6854794509791873E-12    0.1168840253751302E-08
 -0.5332  -0.2995    0.3931032037976803E-01    0.3416877701605829E-02    0.2384652277936812E-04    0.3670337031589021E+00   -0.3160327041629145E+01   -0.1834962850287062E-05   -0.7472480273440496E-09   -0.1175259889407698E-10    0.7483874631120102E-12    0.1023811728104174E-08
 -0.5355  -0.3217    0.3381267375304321E-01    0.2466336965005503E-02    0.2167333962818806E-04    0.3840418788265771E+00   -0.2283621824431757E+01   -0.1324024495149933E-05   -0.7796669490578445E-09   -0.9038464421351478E-11    0.7710915239655947E-12    0.8800013304860466E-09
 -0.5377  -0.3424    0.2731894465938451E-01    0.1681915553071656E-02    0.1882926699401629E-04    0.4009064758060072E+00   -0.1559957663863931E+01   -0.9024303595570445E-06   -0.8049011318567167E-09   -0.6963263299297751E-11    0.7695788450945429E-12    0.7407367358380768E-09
 -0.5397  -0.3613    0.2029041262279924E-01    0.1069294645299419E-02    0.1563723723930214E-04    0.4173521482967263E+00   -0.9945721955405249E+00   -0.5731914288283605E-06   -0.8241873745984396E-09   -0.5375037220867185E-11    0.7823602876655400E-12    0.6089810253295802E-09
 -0.5415  -0.3785    0.1314404603914734E-01    0.6184102666179064E-03    0.1234674865702975E-04    0.4330692816051446E+00   -0.5782167783036944E+00   -0.3309451145933979E-06   -0.8385517800968412E-09   -0.4131082845595935E-11    0.7727152251391090E-12    0.4871052467630976E-09
 -0.5431  -0.3938    0.6232116700475846E-02    0.3097570117353665E-03    0.9102065888263248E-05    0.4477296062400215E+00   -0.2929713279489906E+00   -0.1651284541326501E-06   -0.8488114690285986E-09   -0.3135082471406037E-11    0.7574635363383209E-12    0.3768557341188306E-09
 -0.5445  -0.4073   -0.1598250005218206E-03    0.1192547258481564E-03    0.5999105989315047E-05    0.4610115943324715E+00   -0.1165501877401330E+00   -0.6289472298324108E-07   -0.8558184265428093E-09   -0.2344607147319877E-11    0.7561243298148668E-12    0.2790005752470459E-09
 -0.5457  -0.4187   -0.5806734647606370E-02    0.2070401797862730E-04    0.3129431029245477E-05    0.4726292624687640E+00   -0.2467823072414455E-01   -0.1007718345911104E-07   -0.8603697788933662E-09   -0.1754450751345615E-11    0.7633494530923102E-12    0.1950350011700741E-09
 -0.5467  -0.4282   -0.1054011664375317E-01   -0.1379163235113327E-04    0.7398519558408970E-06    0.4823551831813770E+00    0.8649269666861345E-02    0.8133545528884913E-08   -0.8634764671940770E-09   -0.1367839869148568E-11    0.7601332757678492E-12    0.1251323463249965E-09
 -0.5475  -0.4356   -0.1425039531049438E-01   -0.1321077417723150E-04   -0.8072375934339216E-06    0.4900301627458895E+00    0.1011007617137283E-01    0.7520573698895401E-08   -0.8659931686680333E-09   -0.1162136359367238E-11    0.7529051167243228E-12    0.7053370344387022E-10
 -0.5480  -0.4409   -0.1689289172631469E-01   -0.3910713554594111E-05   -0.1049577115674639E-05    0.4955577110996303E+00    0.3593753456609313E-02    0.2073607934507652E-08   -0.8691772189137192E-09   -0.1019711658861722E-11    0.7972398782807311E-12    0.3157065017397875E-10
 -0.5483  -0.4440   -0.1847562246866259E-01   -0.1042110492830132E-06   -0.1044936130770946E-06    0.4988880441902161E+00    0.5180189052162868E-03    0.9091649910035640E-10   -0.8727689967762652E-09   -0.5470793089379367E-12    0.5424842432905086E-12    0.7571575365381694E-11
 -0.5485  -0.4451   -0.1900533647575551E-01    0.0000000000000000E+00    0.0000000000000000E+00    0.5000000000000000E+00   -0.1322615028675113E-03    0.0000000000000000E+00    0.0000000000000000E+00    0.0000000000000000E+00    0.0000000000000000E+00    0.0000000000000000E+00
 -0.4407   0.5491    0.2459528466081224E-01    0.0000000000000000E+00    0.0000000000000000E+00   -0.5000000000000000E+00   -0.4355204206489194E-02    0.0000000000000000E+00    0.0000000000000000E+00    0.0000000000000000E+00    0.0000000000000000E+00    0.0000000000000000E+00
 -0.4409   0.5480    0.2512309231232267E-01    0.7005249477124968E-06   -0.3621401531384469E-05   -0.4960357576232385E+00   -0.2443233113379249E-02   -0.2079511280693585E-08    0.2155563403553190E-09    0.7712332833996471E-12    0.1006959327119056E-11   -0.4078875258384240E-11
 -0.4412   0.5448    0.2668934359285460E-01    0.5168364009780970E-05   -0.5168834774457479E-05   -0.4841616835476929E+00    0.2111773068791787E-02   -0.1915656292525944E-07    0.2168841510465785E-09    0.2262325743407345E-11    0.2403845785620140E-11   -0.1659484745800133E-10
 -0.4417   0.5395    0.2923529104478523E-01   -0.5107583658461047E-06    0.6625955248873833E-05   -0.4644435604113864E+00    0.8674705044548585E-02   -0.1929392647877560E-07    0.2190159208506626E-09    0.3134810119820308E-11    0.2894203973702325E-11   -0.3775864777094684E-10
 -0.4425   0.5321    0.3263326695119052E-01   -0.6147317550401760E-04    0.2717260627478293E-04   -0.4370218868388423E+00    0.2367684727542713E-01    0.1078932763652509E-06    0.2209247923490310E-09    0.3336089217376159E-11    0.2993817867225079E-11   -0.6764044706286665E-10
 -0.4435   0.5227    0.3666326482293045E-01   -0.2221599990929136E-03    0.4592047108895674E-04   -0.4021504050979216E+00    0.5663710119631453E-01    0.4631828897191876E-06    0.2223913518617504E-09    0.3475682415488013E-11    0.2934562315370925E-11   -0.1087678835887118E-09
 -0.4447   0.5112    0.4102476409462134E-01   -0.4899684028783024E-03    0.5555728514533778E-04   -0.3602376377068931E+00    0.1104309853895411E+00    0.1060490988360611E-05    0.2237080867772967E-09    0.4034161026067462E-11    0.2856149344809822E-11   -0.1641051669554194E-09
 -0.4461   0.4978    0.4536961402894518E-01   -0.8241352638142856E-03    0.5300691803149222E-04   -0.3118923430132140E+00    0.1774026517157982E+00    0.1807290992032989E-05    0.2254669125012487E-09    0.5199073810358001E-11    0.2781877159185875E-11   -0.2396960858963570E-09
 -0.4477   0.4825    0.4933723323513636E-01   -0.1143036415578909E-02    0.3824695899655922E-04   -0.2579859725202250E+00    0.2403630703584654E+00    0.2523455456315071E-05    0.2285120148659558E-09    0.6736670249418708E-11    0.2803746818047514E-11   -0.3440837961776744E-09