 title="result"
 variables="x","y","P","u","v","t","omega","psi","RES1","RES2","RES3","RES4"
zone,j= 49,i= 49,f=point
 -0.4855   0.5141    0.2302028346906589E-01    0.0000000000000000E+00    0.0000000000000000E+00   -0.5000000000000000E+00    0.0000000000000000E+00    0.0000000000000000E+00    0.0000000000000000E+00    0.0000000000000000E+00    0.0000000000000000E+00    0.0000000000000000E+00
 -0.4855   0.5130    0.2355071005520385E-01    0.0000000000000000E+00    0.0000000000000000E+00   -0.4962809324583448E+00   -0.3426538095128764E-03    0.0000000000000000E+00    0.0000000000000000E+00    0.0000000000000000E+00    0.0000000000000000E+00    0.0000000000000000E+00
 -0.4856   0.5098    0.2513519025067348E-01    0.0000000000000000E+00    0.0000000000000000E+00   -0.4851410802706485E+00   -0.4534033411190391E-02    0.0000000000000000E+00    0.0000000000000000E+00    0.0000000000000000E+00    0.0000000000000000E+00    0.0000000000000000E+00
 -0.4858   0.5045    0.2773788384082322E-01    0.0000000000000000E+00    0.0000000000000000E+00   -0.4666407274935174E+00   -0.2569291472674835E-02    0.0000000000000000E+00    0.0000000000000000E+00    0.0000000000000000E+00    0.0000000000000000E+00    0.0000000000000000E+00
 -0.4860   0.4971    0.3122513032975243E-01    0.0000000000000000E+00    0.0000000000000000E+00   -0.4409052195070594E+00    0.2803303208042262E-01    0.0000000000000000E+00    0.0000000000000000E+00    0.0000000000000000E+00    0.0000000000000000E+00    0.0000000000000000E+00
 -0.4862   0.4876    0.3534122473955360E-01    0.0000000000000000E+00    0.0000000000000000E+00   -0.4081518075254165E+00    0.1021654694993653E+00    0.0000000000000000E+00    0.0000000000000000E+00    0.0000000000000000E+00    0.0000000000000000E+00    0.0000000000000000E+00
 -0.4866   0.4761    0.3975357310391375E-01    0.0000000000000000E+00    0.0000000000000000E+00   -0.3687108052722582E+00    0.2183922921827313E+00    0.0000000000000000E+00    0.0000000000000000E+00    0.0000000000000000E+00    0.0000000000000000E+00    0.0000000000000000E+00
 -0.4870   0.4626    0.4409500347917287E-01    0.0000000000000000E+00    0.0000000000000000E+00   -0.3230439930951242E+00    0.3587777224950191E+00    0.0000000000000000E+00    0.0000000000000000E+00    0.0000000000000000E+00    0.0000000000000000E+00    0.0000000000000000E+00
 -0.4874   0.4472    0.4800590668833063E-01    0.0000000000000000E+00    0.0000000000000000E+00   -0.2717833626896293E+00    0.4928258347455579E+00    0.0000000000000000E+00    0.0000000000000000E+00    0.0000000000000000E+00    0.0000000000000000E+00    0.0000000000000000E+00
 -0.4879   0.4299    0.5116706289198696E-01    0.0000000000000000E+00    0.0000000000000000E+00   -0.2158218610225691E+00    0.5844746732380337E+00    0.0000000000000000E+00    0.0000000000000000E+00    0.0000000000000000E+00    0.0000000000000000E+00    0.0000000000000000E+00
 -0.4884   0.4108    0.5332241831338331E-01    0.0000000000000000E+00    0.0000000000000000E+00   -0.1564693960761752E+00    0.6005761167692329E+00    0.0000000000000000E+00    0.0000000000000000E+00    0.0000000000000000E+00    0.0000000000000000E+00    0.0000000000000000E+00
 -0.4890   0.3901    0.5428690367505053E-01    0.0000000000000000E+00    0.0000000000000000E+00   -0.9563546909793058E-01    0.5186523369963970E+00    0.0000000000000000E+00    0.0000000000000000E+00    0.0000000000000000E+00    0.0000000000000000E+00    0.0000000000000000E+00
 -0.4897   0.3677    0.5394592545691793E-01    0.0000000000000000E+00    0.0000000000000000E+00   -0.3592281062305293E-01    0.3305120886549837E+00    0.0000000000000000E+00    0.0000000000000000E+00    0.0000000000000000E+00    0.0000000000000000E+00    0.0000000000000000E+00
 -0.4904   0.3439    0.5225665643545768E-01    0.0000000000000000E+00    0.0000000000000000E+00    0.1954174246628512E-01    0.3984779718696307E-01    0.0000000000000000E+00    0.0000000000000000E+00    0.0000000000000000E+00    0.0000000000000000E+00    0.0000000000000000E+00
 -0.4911   0.3186    0.4925971210669125E-01    0.0000000000000000E+00    0.0000000000000000E+00    0.6766204909197346E-01   -0.3447868908737844E+00    0.0000000000000000E+00    0.0000000000000000E+00    0.0000000000000000E+00    0.0000000000000000E+00    0.0000000000000000E+00
 -0.4918   0.2920    0.4509304869453781E-01    0.0000000000000000E+00    0.0000000000000000E+00    0.1062107957682230E+00   -0.8170499528546186E+00    0.0000000000000000E+00    0.0000000000000000E+00    0.0000000000000000E+00    0.0000000000000000E+00    0.0000000000000000E+00
 -0.4926   0.2642    0.3999168932573484E-01    0.0000000000000000E+00    0.0000000000000000E+00    0.1345565795776132E+00   -0.1375951801233296E+01    0.0000000000000000E+00    0.0000000000000000E+00    0.0000000000000000E+00    0.0000000000000000E+00    0.0000000000000000E+00
 -0.4935   0.2354    0.3426553214942572E-01    0.0000000000000000E+00    0.0000000000000000E+00    0.1538182908341745E+00   -0.2024230910268638E+01    0.0000000000000000E+00    0.0000000000000000E+00    0.0000000000000000E+00    0.0000000000000000E+00    0.0000000000000000E+00
 -0.4943   0.2056    0.2826811193349326E-01    0.0000000000000000E+00    0.0000000000000000E+00    0.1663145855845020E+00   -0.2763713906255319E+01    0.0000000000000000E+00    0.0000000000000000E+00    0.0000000000000000E+00    0.0000000000000000E+00    0.0000000000000000E+00
 -0.4952   0.1750    0.2237274722074705E-01    0.0000000000000000E+00    0.0000000000000000E+00    0.1746557821666565E+00   -0.3589750079331646E+01    0.0000000000000000E+00    0.0000000000000000E+00    0.0000000000000000E+00    0.0000000000000000E+00    0.0000000000000000E+00
 -0.4961   0.1437    0.1695927647629231E-01    0.0000000000000000E+00    0.0000000000000000E+00    0.1810054245835630E+00   -0.4486760717144478E+01    0.0000000000000000E+00    0.0000000000000000E+00    0.0000000000000000E+00    0.0000000000000000E+00    0.0000000000000000E+00
 -0.4970   0.1118    0.1240078806572030E-01    0.0000000000000000E+00    0.0000000000000000E+00    0.1867953428288295E+00   -0.5426557596521254E+01    0.0000000000000000E+00    0.0000000000000000E+00    0.0000000000000000E+00    0.0000000000000000E+00    0.0000000000000000E+00
 -0.4979   0.0796    0.9040972974236649E-02    0.0000000000000000E+00    0.0000000000000000E+00    0.1928178147296077E+00   -0.6369908449444439E+01    0.0000000000000000E+00    0.0000000000000000E+00    0.0000000000000000E+00    0.0000000000000000E+00    0.0000000000000000E+00
 -0.4989   0.0470    0.7161075218810919E-02    0.0000000000000000E+00    0.0000000000000000E+00    0.1994589306177554E+00   -0.7270275929861374E+01    0.0000000000000000E+00    0.0000000000000000E+00    0.0000000000000000E+00    0.0000000000000000E+00    0.0000000000000000E+00
 -0.4998   0.0143    0.6943060569279751E-02    0.0000000000000000E+00    0.0000000000000000E+00    0.2068992794370830E+00   -0.8078137005135824E+01    0.0000000000000000E+00    0.0000000000000000E+00    0.0000000000000000E+00    0.0000000000000000E+00    0.0000000000000000E+00
 -0.5007  -0.0184    0.8436563023426541E-02    0.0000000000000000E+00    0.0000000000000000E+00    0.2152305240574500E+00   -0.8744742092814223E+01    0.0000000000000000E+00    0.0000000000000000E+00    0.0000000000000000E+00    0.0000000000000000E+00    0.0000000000000000E+00
 -0.5017  -0.0509    0.1153534755003217E-01    0.0000000000000000E+00    0.0000000000000000E+00    0.2245066426086607E+00   -0.9225162612628269E+01    0.0000000000000000E+00    0.0000000000000000E+00    0.0000000000000000E+00    0.0000000000000000E+00    0.0000000000000000E+00
 -0.5026  -0.0832    0.1596672440275930E-01    0.0000000000000000E+00    0.0000000000000000E+00    0.2347608583661078E+00   -0.9481172406829858E+01    0.0000000000000000E+00    0.0000000000000000E+00    0.0000000000000000E+00    0.0000000000000000E+00    0.0000000000000000E+00
 -0.5035  -0.1150    0.2129779778384116E-01    0.0000000000000000E+00    0.0000000000000000E+00    0.2460085164792374E+00   -0.9484721942352866E+01    0.0000000000000000E+00    0.0000000000000000E+00    0.0000000000000000E+00    0.0000000000000000E+00    0.0000000000000000E+00
 -0.5044  -0.1463    0.2696320815637851E-01    0.0000000000000000E+00    0.0000000000000000E+00    0.2582453329367718E+00   -0.9222261898106701E+01    0.0000000000000000E+00    0.0000000000000000E+00    0.0000000000000000E+00    0.0000000000000000E+00    0.0000000000000000E+00
 -0.5053  -0.1769    0.3231839253608484E-01    0.0000000000000000E+00    0.0000000000000000E+00    0.2714447913813183E+00   -0.8699313538118746E+01    0.0000000000000000E+00    0.0000000000000000E+00    0.0000000000000000E+00    0.0000000000000000E+00    0.0000000000000000E+00
 -0.5061  -0.2067    0.3671692943925221E-01    0.0000000000000000E+00    0.0000000000000000E+00    0.2855562358330776E+00   -0.7943720881347756E+01    0.0000000000000000E+00    0.0000000000000000E+00    0.0000000000000000E+00    0.0000000000000000E+00    0.0000000000000000E+00
 -0.5070  -0.2356    0.3960139061375055E-01    0.0000000000000000E+00    0.0000000000000000E+00    0.3005042639725941E+00   -0.7005652127288858E+01    0.0000000000000000E+00    0.0000000000000000E+00    0.0000000000000000E+00    0.0000000000000000E+00    0.0000000000000000E+00
 -0.5077  -0.2634    0.4058749026433196E-01    0.0000000000000000E+00    0.0000000000000000E+00    0.3161892976134654E+00   -0.5952952255341557E+01    0.0000000000000000E+00    0.0000000000000000E+00    0.0000000000000000E+00    0.0000000000000000E+00    0.0000000000000000E+00
 -0.5085  -0.2899    0.3951817929901310E-01    0.0000000000000000E+00    0.0000000000000000E+00    0.3324884466666074E+00   -0.4862053575123477E+01    0.0000000000000000E+00    0.0000000000000000E+00    0.0000000000000000E+00    0.0000000000000000E+00    0.0000000000000000E+00
 -0.5092  -0.3152    0.3647144276142546E-01    0.0000000000000000E+00    0.0000000000000000E+00    0.3492552222965379E+00   -0.3806526920609393E+01    0.0000000000000000E+00    0.0000000000000000E+00    0.0000000000000000E+00    0.0000000000000000E+00    0.0000000000000000E+00
 -0.5099  -0.3391    0.3172147282664915E-01    0.0000000000000000E+00    0.0000000000000000E+00    0.3663167767499698E+00   -0.2846572778347335E+01    0.0000000000000000E+00    0.0000000000000000E+00    0.0000000000000000E+00    0.0000000000000000E+00    0.0000000000000000E+00
 -0.5106  -0.3615    0.2566915927267207E-01    0.0000000000000000E+00    0.0000000000000000E+00    0.3834685558884616E+00   -0.2022398475281016E+01    0.0000000000000000E+00    0.0000000000000000E+00    0.0000000000000000E+00    0.0000000000000000E+00    0.0000000000000000E+00
 -0.5112  -0.3822    0.1876589397615613E-01    0.0000000000000000E+00    0.0000000000000000E+00    0.4004684312046219E+00   -0.1352804996926241E+01    0.0000000000000000E+00    0.0000000000000000E+00    0.0000000000000000E+00    0.0000000000000000E+00    0.0000000000000000E+00
 -0.5117  -0.4012    0.1145148897886403E-01    0.0000000000000000E+00    0.0000000000000000E+00    0.4170345500180667E+00   -0.8382595691664179E+00    0.0000000000000000E+00    0.0000000000000000E+00    0.0000000000000000E+00    0.0000000000000000E+00    0.0000000000000000E+00
 -0.5122  -0.4185    0.4116306146741570E-02    0.0000000000000000E+00    0.0000000000000000E+00    0.4328517019493155E+00   -0.4664089951339790E+00    0.0000000000000000E+00    0.0000000000000000E+00    0.0000000000000000E+00    0.0000000000000000E+00    0.0000000000000000E+00
 -0.5126  -0.4339   -0.2913148293156133E-02    0.0000000000000000E+00    0.0000000000000000E+00    0.4475887348473685E+00   -0.2177212384502042E+00    0.0000000000000000E+00    0.0000000000000000E+00    0.0000000000000000E+00    0.0000000000000000E+00    0.0000000000000000E+00
 -0.5130  -0.4474   -0.9373295039337577E-02    0.0000000000000000E+00    0.0000000000000000E+00    0.4609248800242162E+00   -0.6955447655954849E-01    0.0000000000000000E+00    0.0000000000000000E+00    0.0000000000000000E+00    0.0000000000000000E+00    0.0000000000000000E+00
 -0.5134  -0.4590   -0.1505676918157385E-01    0.0000000000000000E+00    0.0000000000000000E+00    0.4725780530582267E+00    0.1937787135709411E-02    0.0000000000000000E+00    0.0000000000000000E+00    0.0000000000000000E+00    0.0000000000000000E+00    0.0000000000000000E+00
 -0.5136  -0.4684   -0.1980883087556163E-01    0.0000000000000000E+00    0.0000000000000000E+00    0.4823261856460773E+00    0.2157760874410096E-01    0.0000000000000000E+00    0.0000000000000000E+00    0.0000000000000000E+00    0.0000000000000000E+00    0.0000000000000000E+00
 -0.5138  -0.4759   -0.2352930942323404E-01    0.0000000000000000E+00    0.0000000000000000E+00    0.4900149745002197E+00    0.1453804756910359E-01    0.0000000000000000E+00    0.0000000000000000E+00    0.0000000000000000E+00    0.0000000000000000E+00    0.0000000000000000E+00
 -0.5140  -0.4812   -0.2617755595077313E-01    0.0000000000000000E+00    0.0000000000000000E+00    0.4955511531815991E+00    0.3415656647245192E-02    0.0000000000000000E+00    0.0000000000000000E+00    0.0000000000000000E+00    0.0000000000000000E+00    0.0000000000000000E+00
 -0.5141  -0.4844   -0.2776509023333710E-01    0.0000000000000000E+00    0.0000000000000000E+00    0.4988864149927077E+00   -0.1513275702943727E-03    0.0000000000000000E+00    0.0000000000000000E+00    0.0000000000000000E+00    0.0000000000000000E+00    0.0000000000000000E+00
 -0.5141  -0.4855   -0.2829776499105919E-01    0.0000000000000000E+00    0.0000000000000000E+00    0.5000000000000000E+00    0.0000000000000000E+00    0.0000000000000000E+00    0.0000000000000000E+00    0.0000000000000000E+00    0.0000000000000000E+00    0.0000000000000000E+00
 -0.4844   0.5141    0.2303823999711562E-01    0.0000000000000000E+00    0.0000000000000000E+00   -0.5000000000000000E+00   -0.3426741227588032E-03    0.0000000000000000E+00    0.0000000000000000E+00    0.0000000000000000E+00    0.0000000000000000E+00    0.0000000000000000E+00
 -0.4844   0.5130    0.2356861028343155E-01    0.3411489497742644E-06   -0.3411859993524233E-06   -0.4962808608539672E+00   -0.5466598399081189E-03   -0.2417719994655041E-09    0.9241515366549893E-09   -0.1622246716299902E-12   -0.1409742548391657E-12   -0.9594461401578325E-11
 -0.4845   0.5098    0.2515132462921296E-01    0.3327080235444376E-05   -0.4989966152288063E-06   -0.4851407964564050E+00   -0.1643037394286844E-02   -0.2001310712744115E-08    0.9232473105252534E-09   -0.2208754013022229E-12   -0.2524054641510343E-12   -0.3874980479719181E-10
 -0.4847   0.5045    0.2774624451426681E-01   -0.3929348958759163E-06    0.1191158411303314E-05   -0.4666401109054875E+00    0.3441269648210796E-02   -0.3641220548007538E-09    0.9233888020529490E-09   -0.1600993643213755E-12   -0.2251298106270561E-12   -0.8725946354370961E-10
 -0.4849   0.4970    0.3122183304792584E-01   -0.3285479667209835E-04    0.3390492639237218E-05   -0.4409041999931926E+00    0.3341314950760957E-01    0.1711809633295127E-07    0.9256892847739340E-09   -0.3336046716650998E-12   -0.1959387513350563E-12   -0.1541440699040497E-09
 -0.4852   0.4876    0.3532829662602924E-01   -0.1099355634918823E-03    0.5178800573063141E-05   -0.4081503687324151E+00    0.1032630855477751E+00    0.5873503484876785E-07    0.9300889555058367E-09   -0.1180372639908445E-11   -0.1728304999115693E-12   -0.2375631462381289E-09
 -0.4855   0.4760    0.3973556042434234E-01   -0.2307398970778466E-03    0.5944004427747472E-05   -0.3687089431062244E+00    0.2126726003817521E+00    0.1240694723347167E-06    0.9358632254569121E-09   -0.2975881693845217E-11   -0.1398291205045865E-12   -0.3342651173215971E-09
 -0.4859   0.4625    0.4407752401108962E-01   -0.3768387354684978E-03    0.5562177926538403E-05   -0.3230416479456492E+00    0.3452147370888016E+00    0.2029884312611539E-06    0.9416781885512870E-09   -0.5792054336151153E-11   -0.1147588968297697E-12   -0.4362493769005660E-09
 -0.4863   0.4471    0.4799411550833241E-01   -0.5163460264388312E-03    0.4081120575948048E-05   -0.2717803594995889E+00    0.4717716999005334E+00    0.2783929422055454E-06    0.9460968102698031E-09   -0.9414177770672438E-11   -0.1025776685814606E-12   -0.5281073321705687E-09
 -0.4868   0.4298    0.5116486287886663E-01   -0.6112704340232804E-03    0.1801310025390210E-05   -0.2158178923030088E+00    0.5574611956218143E+00    0.3297536184314775E-06    0.9478492357314905E-09   -0.1341204924898420E-10   -0.1072891775422136E-12   -0.5854971611707338E-09
 -0.4874   0.4108    0.5333173446542650E-01   -0.6264930814877085E-03   -0.8991061414436644E-06   -0.1564640778024479E+00    0.5697955139758345E+00    0.3382758745628785E-06    0.9459095934912648E-09   -0.1725691811671481E-10   -0.1787745299020038E-12   -0.5720122223107360E-09
 -0.4880   0.3901    0.5430768359781640E-01   -0.5379853527332978E-03   -0.3583777953406666E-05   -0.9562848884045910E-01    0.4863784338432585E+00    0.2910332236672993E-06    0.9389878154533737E-09   -0.2050336289638466E-10   -0.1590116927019380E-12   -0.4423862873248474E-09
 -0.4886   0.3677    0.5397661435185798E-01   -0.3367252400100006E-03   -0.5953910206716131E-05   -0.3591414990612653E-01    0.2985271507986032E+00    0.1832900173578717E-06    0.9247199620615598E-09   -0.2288014222529000E-10   -0.2119485142948463E-12   -0.1519855560849770E-09
 -0.4893   0.3438    0.5229524565049648E-01   -0.2628610367732327E-04   -0.7882946492840079E-05    0.1955160769134114E-01    0.9234394865143726E-02    0.1698410824225787E-07    0.8989276163717808E-09   -0.2429094425604461E-10   -0.2838979051844603E-12    0.3244201296492832E-09
 -0.4900   0.3185    0.4930463128463538E-01    0.3844667748928418E-03   -0.9455998311790639E-05    0.6767213425467071E-01   -0.3735032900410289E+00   -0.2030513336072068E-06    0.8559680741981879E-09   -0.2466624127173134E-10   -0.3381808721947266E-12    0.9723464117206149E-09
 -0.4908   0.2920    0.4514364652956716E-01    0.8888209577839420E-03   -0.1083369304734842E-04    0.1062198878745531E+00   -0.8434790972396824E+00   -0.4732408742333605E-06    0.7902620086097656E-09   -0.2383318542520385E-10   -0.3907915657741512E-12    0.1727711827770317E-08
 -0.4916   0.2642    0.4004804127039356E-01    0.1485568014751655E-02   -0.1217012671468153E-04    0.1345637058475189E+00   -0.1399431014798610E+01   -0.7929368623817312E-06    0.6984183648084397E-09   -0.2149331407297339E-10   -0.4858058400003529E-12    0.2489228628776985E-08
 -0.4924   0.2353    0.3432796740078103E-01    0.2177324436690502E-02   -0.1351455898720238E-04    0.1538230790636401E+00   -0.2043501437200475E+01   -0.1163619462169330E-05    0.5806702653432527E-09   -0.1726100512522422E-10   -0.5206807207613906E-12    0.3152307633674800E-08
 -0.4932   0.2055    0.2833660558417126E-01    0.2965630296349858E-02   -0.1481854524358970E-04    0.1663172834591103E+00   -0.2776744619616770E+01   -0.1586166296812383E-05    0.4409690251838683E-09   -0.1073714034349749E-10   -0.5732220254017761E-12    0.3644801238600337E-08
 -0.4941   0.1749    0.2244648574554917E-01    0.3845078218249504E-02   -0.1593194665316591E-04    0.1746569804297987E+00   -0.3593704303235883E+01   -0.2057777254025641E-05    0.2863936761354768E-09   -0.1528721593757609E-11   -0.6573075417293239E-12    0.3943890446861387E-08
 -0.4950   0.1436    0.1703641327569990E-01    0.4798657504174706E-02   -0.1666610529690128E-04    0.1810057279240284E+00   -0.4478182686517308E+01   -0.2569390893316485E-05    0.1263660044659165E-09    0.1063286958480347E-10   -0.7023548409534897E-12    0.4068402106307753E-08
 -0.4959   0.1118    0.1247853189326915E-01    0.5796059529468580E-02   -0.1683273812719549E-04    0.1867951836050268E+00   -0.5401742728670704E+01   -0.3104820946457057E-05   -0.2798228315725737E-10    0.2573877916356437E-10   -0.6853129175254935E-12    0.4058168092367642E-08
 -0.4969   0.0795    0.9115835273389499E-02    0.6795410917423715E-02   -0.1630059296837928E-04    0.1928174315967252E+00   -0.6325390875399948E+01   -0.3641620085916248E-05   -0.1645119214466195E-09    0.4335350134443416E-10   -0.6778605454726971E-12    0.3956443494438494E-08
 -0.4978   0.0470    0.7229220287777612E-02    0.7747282275165480E-02   -0.1499615197629092E-04    0.1994584288140582E+00   -0.7203318875158096E+01   -0.4153270184575889E-05   -0.2712151822570341E-09    0.6260778007138867E-10   -0.6275951980327932E-12    0.3797957173583277E-08
 -0.4987   0.0143    0.7000562224685885E-02    0.8599277458103892E-02   -0.1290581293690561E-04    0.2068986957106571E+00   -0.7987163751889675E+01   -0.4611606873978251E-05   -0.3374952886603388E-09    0.8230580106349805E-10   -0.5388259283201080E-12    0.3608121519442509E-08
 -0.4997  -0.0184    0.8479614444103323E-02    0.9300009989023309E-02   -0.1004925471130468E-04    0.2152298673339558E+00   -0.8629673841754940E+01   -0.4988987538350740E-05   -0.3555161130763818E-09    0.1011002392914406E-09   -0.4316616508681648E-12    0.3403767702588045E-08
 -0.5006  -0.0510    0.1156038933480875E-01    0.9802312085813164E-02   -0.6479686998089784E-05    0.2245059130598230E+00   -0.9087658082383641E+01   -0.5259994499438905E-05   -0.3215814298879183E-09    0.1176183039852674E-09   -0.2784404651290373E-12    0.3195388476387451E-08
 -0.5015  -0.0832    0.1597064344262022E-01    0.1006626112716549E-01   -0.2283208924695972E-05    0.2347600548271458E+00   -0.9324759353287973E+01   -0.5403082703816355E-05   -0.2366528197364492E-09    0.1306098562636748E-09   -0.6860310930445479E-13    0.2989264724639895E-08
 -0.5024  -0.1151    0.2127819116070548E-01    0.1006281421172401E-01    0.2394136994689669E-05    0.2460076389962103E+00   -0.9314767950731019E+01   -0.5402529846708550E-05   -0.1066857123477316E-09    0.1390184634075808E-09    0.9916199805726222E-13    0.2789158626281818E-08
 -0.5033  -0.1464    0.2691879617292117E-01    0.9778314408324542E-02    0.7328734042058079E-05    0.2582443833887010E+00   -0.9045721396492047E+01   -0.5250873768545628E-05    0.5762041191403888E-10    0.1420597528500878E-09    0.2962144418638957E-12    0.2596547183861264E-08
 -0.5042  -0.1770    0.3224944089693491E-01    0.9219222684092018E-02    0.1220579504897149E-04    0.2714437731038157E+00   -0.8524167220462445E+01   -0.4951477707594030E-05    0.2418014573291050E-09    0.1393428705753763E-09    0.5023134685977482E-12    0.2411516325170893E-08
 -0.5051  -0.2068    0.3662560782956151E-01    0.8415440387194550E-02    0.1664264240448114E-04    0.2855551525077083E+00   -0.7778127113841519E+01   -0.4520325589843011E-05    0.4293317402981334E-09    0.1309828356887976E-09    0.6745298763988217E-12    0.2233129904952169E-08
 -0.5059  -0.2356    0.3949182096334592E-01    0.7420212194699557E-02    0.2024199976391609E-04    0.3005031180737411E+00   -0.6856901806028012E+01   -0.3986007370508320E-05    0.6039658009826532E-09    0.1176593822371785E-09    0.8495981695944010E-12    0.2059544680632630E-08
 -0.5067  -0.2634    0.4046543692547135E-01    0.6305179822463810E-02    0.2267310019073919E-04    0.3161880890117859E+00   -0.5826492656192880E+01   -0.3387037237256816E-05    0.7522888631483760E-09    0.1006542627024487E-09    0.9861417238354875E-12    0.1888856869525224E-08
 -0.5074  -0.2900    0.3939031582481309E-01    0.5150825434409723E-02    0.2375032565091871E-04    0.3324871723225038E+00   -0.4760818759363137E+01   -0.2766746525458160E-05    0.8659950881395595E-09    0.8167622134180874E-10    0.1067687604994205E-11    0.1718398289982104E-08
 -0.5082  -0.3153    0.3634444302257315E-01    0.4034493506288486E-02    0.2347517911986880E-04    0.3492538780449133E+00   -0.3730810824670128E+01   -0.2166771517363045E-05    0.9428678185430250E-09    0.6256095641532511E-10    0.1113553693699032E-11    0.1547032909762769E-08
 -0.5088  -0.3391    0.3160110943617011E-01    0.3019422596181056E-02    0.2203015303769695E-04    0.3663153617302413E+00   -0.2794402067262158E+01   -0.1621197131790896E-05    0.9861527705545825E-09    0.4493258543014633E-10    0.1122907322681499E-11    0.1373540964993980E-08
 -0.5095  -0.3615    0.2555973936260036E-01    0.2147845996933782E-02    0.1971350511145417E-04    0.3834670790887535E+00   -0.1990295126441395E+01   -0.1152748945432903E-05    0.1002918435799582E-08    0.2995645398407021E-10    0.1105920910404734E-11    0.1198505454602650E-08
 -0.5101  -0.3822    0.1867005834533268E-01    0.1439526626161990E-02    0.1686444305639506E-04    0.4004669181384848E+00   -0.1336597974631469E+01   -0.7721011438675398E-06    0.1001608081196981E-08    0.1819833866933962E-10    0.1069269672804296E-11    0.1024354252462945E-08
 -0.5106  -0.4013    0.1137043337423184E-01    0.8949683265559319E-03    0.1377597720055054E-04    0.4170330464301518E+00   -0.8338003266349262E+00   -0.4794846856903137E-06    0.9902049770416088E-09    0.9678507995047880E-11    0.1001171368031351E-11    0.8535715710633607E-09
 -0.5111  -0.4186    0.4050166414191472E-02    0.5011717615466799E-03    0.1066649687014983E-04    0.4328502715502189E+00   -0.4699517455910366E+00   -0.2679490244878526E-06    0.9748901651229769E-09    0.4022751749765963E-11    0.9610506834789589E-12    0.6902811412745624E-09
 -0.5116  -0.4340   -0.2964840382502265E-02    0.2375175392963733E-03    0.7655223733141707E-05    0.4475874498273107E+00   -0.2260884088759840E+00   -0.1263458322690241E-06    0.9597944609224252E-09    0.6550454623166502E-12    0.9211381657436846E-12    0.5377244014642679E-09
 -0.5120  -0.4475   -0.9411405966877102E-02    0.8001471722041133E-04    0.4829552962251706E-05    0.4609238059906056E+00   -0.7999951485431639E-01   -0.4186545498384501E-07    0.9470830005658959E-09   -0.1048806874681674E-11    0.8886606728264468E-12    0.4003161161933444E-09
 -0.5123  -0.4590   -0.1508266093638250E-01    0.3292039574992215E-05    0.2275618212700750E-05    0.4725772328284106E+00   -0.8175466030202180E-02   -0.8004041899241719E-09    0.9375859906166073E-09   -0.1659724441216426E-11    0.8439481752331446E-12    0.2808127992290355E-09
 -0.5126  -0.4685   -0.1982488996681673E-01   -0.1905504724717558E-04    0.2331007352990286E-06    0.4823256277004044E+00    0.1396799353751742E-01    0.1088294332840397E-07    0.9310115470445926E-09   -0.1662829596238424E-11    0.8390467140517721E-12    0.1806562208855889E-09
 -0.5128  -0.4759   -0.2353980584274779E-01   -0.1365890893302442E-04   -0.9865666707499738E-06    0.4900146508725878E+00    0.1089993878813082E-01    0.7691534162154390E-08    0.9266150602892098E-09   -0.1427764156902711E-11    0.8030958710547598E-12    0.1018706946055714E-09
 -0.5129  -0.4812   -0.2618882619428525E-01   -0.3634473005098011E-05   -0.1010346806138314E-05    0.4955510079152787E+00    0.3487675545482325E-02    0.1905562606583934E-08    0.9226454355300978E-09   -0.1173792616923630E-11    0.8497373811533482E-12    0.4558901119024877E-10
 -0.5130  -0.4844   -0.2777862310460639E-01   -0.7900482292951405E-07   -0.7930345197109437E-07    0.4988863786193306E+00    0.4692263223874411E-03    0.7026766485861328E-10    0.9186650202488642E-09   -0.5860164783988431E-12    0.6049538040647784E-12    0.1156997471462619E-10
 -0.5130  -0.4855   -0.2831131572033990E-01    0.0000000000000000E+00    0.0000000000000000E+00    0.5000000000000000E+00   -0.1507485387025835E-03    0.0000000000000000E+00    0.0000000000000000E+00    0.0000000000000000E+00    0.0000000000000000E+00    0.0000000000000000E+00
 -0.4812   0.5140    0.2307275015235442E-01    0.0000000000000000E+00    0.0000000000000000E+00   -0.5000000000000000E+00   -0.4534309491690897E-02    0.0000000000000000E+00    0.0000000000000000E+00    0.0000000000000000E+00    0.0000000000000000E+00    0.0000000000000000E+00
 -0.4812   0.5129    0.2360454258388007E-01    0.4990352676001390E-06   -0.3327388009160746E-05   -0.4962797888493578E+00   -0.1643364913212430E-02   -0.2001491992094039E-08    0.9231428055788901E-09   -0.2096487046465700E-12   -0.3608873182930905E-12   -0.9652514193752432E-11
 -0.4813   0.5097    0.2518674063689040E-01    0.5660546352869171E-06   -0.5647891426610924E-06   -0.4851365451972153E+00    0.5608910465179276E-02   -0.1212431717674220E-07    0.9228651287173512E-09   -0.5421340459887958E-12   -0.8269951563832922E-12   -0.3906220876273570E-10
 -0.4815   0.5044    0.2776756081058675E-01   -0.2922036453339960E-04    0.2090896598642254E-04   -0.4666308203837460E+00    0.1804940911539228E-01    0.3823207149052526E-07    0.9231935944875591E-09   -0.7981141789126234E-12   -0.8113501190343264E-12   -0.8723553997225242E-10
 -0.4817   0.4970    0.3121683544628152E-01   -0.1571787885800775E-03    0.5194813917066216E-04   -0.4408886100571833E+00    0.4671909867671291E-01    0.3133740943297929E-06    0.9251989868674926E-09   -0.1874947246072178E-11   -0.4167256817400045E-12   -0.1542243494370710E-09
 -0.4820   0.4875    0.3529849087699750E-01   -0.4416078106463239E-03    0.7794807003978852E-04   -0.4081278969586141E+00    0.1048947867492747E+00    0.9432486448390302E-06    0.9291609703865333E-09   -0.5296471377799761E-11    0.1303679386666090E-12   -0.2378854804113706E-09
 -0.4823   0.4759    0.3969164317782242E-01   -0.8844896209456820E-03    0.8972103707481565E-04   -0.3686791997181120E+00    0.1951352493543928E+00    0.1927609726878980E-05    0.9344951548695413E-09   -0.1221271521412159E-10    0.6351481840471962E-12   -0.3345536018356521E-09
 -0.4827   0.4624    0.4403425449228867E-01   -0.1420842948685511E-02    0.8393807407428770E-04   -0.3230035715025487E+00    0.3050933906892337E+00    0.3119162700807980E-05    0.9400225320366218E-09   -0.2295148099351607E-10    0.9726976168966672E-12   -0.4364873809614700E-09
 -0.4831   0.4470    0.4796588576336463E-01   -0.1932182282546129E-02    0.6143854353570293E-04   -0.2717314353285354E+00    0.4098476919097485E+00    0.4256273333640959E-05    0.9443547853427159E-09   -0.3678331250700495E-10    0.1062476495672371E-11   -0.5287410162480022E-09