 title="result"
 variables="x","y","P","u","v","t","omega","psi","RES1","RES2","RES3","RES4"
zone,j= 49,i= 49,f=point
 -0.3916   0.5887    0.2520051688157099E-01    0.0000000000000000E+00    0.0000000000000000E+00   -0.5000000000000000E+00    0.0000000000000000E+00    0.0000000000000000E+00    0.0000000000000000E+00    0.0000000000000000E+00    0.0000000000000000E+00    0.0000000000000000E+00
 -0.3919   0.5877    0.2572147032576920E-01    0.0000000000000000E+00    0.0000000000000000E+00   -0.4957516392092642E+00   -0.8149436853535884E-04    0.0000000000000000E+00    0.0000000000000000E+00    0.0000000000000000E+00    0.0000000000000000E+00    0.0000000000000000E+00
 -0.3925   0.5845    0.2725946882617063E-01    0.0000000000000000E+00    0.0000000000000000E+00   -0.4830267301591975E+00   -0.4239425297546148E-02    0.0000000000000000E+00    0.0000000000000000E+00    0.0000000000000000E+00    0.0000000000000000E+00    0.0000000000000000E+00
 -0.3935   0.5793    0.2975628936608457E-01    0.0000000000000000E+00    0.0000000000000000E+00   -0.4618975841316276E+00   -0.1511623027196911E-01    0.0000000000000000E+00    0.0000000000000000E+00    0.0000000000000000E+00    0.0000000000000000E+00    0.0000000000000000E+00
 -0.3950   0.5720    0.3309988492305382E-01    0.0000000000000000E+00    0.0000000000000000E+00   -0.4325235738468184E+00   -0.2598969458447313E-01    0.0000000000000000E+00    0.0000000000000000E+00    0.0000000000000000E+00    0.0000000000000000E+00    0.0000000000000000E+00
 -0.3969   0.5627    0.3709011497137414E-01    0.0000000000000000E+00    0.0000000000000000E+00   -0.3952065658496755E+00   -0.2777334208015042E-01    0.0000000000000000E+00    0.0000000000000000E+00    0.0000000000000000E+00    0.0000000000000000E+00    0.0000000000000000E+00
 -0.3991   0.5514    0.4144959331876266E-01    0.0000000000000000E+00    0.0000000000000000E+00   -0.3504615028068666E+00   -0.1565518287968701E-01    0.0000000000000000E+00    0.0000000000000000E+00    0.0000000000000000E+00    0.0000000000000000E+00    0.0000000000000000E+00
 -0.4018   0.5382    0.4584440903916220E-01    0.0000000000000000E+00    0.0000000000000000E+00   -0.2990968347062090E+00    0.8839001096340959E-02    0.0000000000000000E+00    0.0000000000000000E+00    0.0000000000000000E+00    0.0000000000000000E+00    0.0000000000000000E+00
 -0.4048   0.5231    0.4990993676857189E-01    0.0000000000000000E+00    0.0000000000000000E+00   -0.2422997831078142E+00    0.3752037533596164E-01    0.0000000000000000E+00    0.0000000000000000E+00    0.0000000000000000E+00    0.0000000000000000E+00    0.0000000000000000E+00
 -0.4083   0.5061    0.5328119687502407E-01    0.0000000000000000E+00    0.0000000000000000E+00   -0.1817148097206556E+00    0.5614912957719400E-01    0.0000000000000000E+00    0.0000000000000000E+00    0.0000000000000000E+00    0.0000000000000000E+00    0.0000000000000000E+00
 -0.4120   0.4874    0.5562898857332683E-01    0.0000000000000000E+00    0.0000000000000000E+00   -0.1194870865920818E+00    0.4563378466957731E-01    0.0000000000000000E+00    0.0000000000000000E+00    0.0000000000000000E+00    0.0000000000000000E+00    0.0000000000000000E+00
 -0.4161   0.4671    0.5669859679299217E-01    0.0000000000000000E+00    0.0000000000000000E+00   -0.5822142169737687E-01   -0.1537833405842503E-01    0.0000000000000000E+00    0.0000000000000000E+00    0.0000000000000000E+00    0.0000000000000000E+00    0.0000000000000000E+00
 -0.4205   0.4452    0.5634230998903209E-01    0.0000000000000000E+00    0.0000000000000000E+00   -0.7945113828140073E-03   -0.1465729702025039E+00    0.0000000000000000E+00    0.0000000000000000E+00    0.0000000000000000E+00    0.0000000000000000E+00    0.0000000000000000E+00
 -0.4252   0.4218    0.5453531904669730E-01    0.0000000000000000E+00    0.0000000000000000E+00    0.5002231305922506E-01   -0.3623188525835123E+00    0.0000000000000000E+00    0.0000000000000000E+00    0.0000000000000000E+00    0.0000000000000000E+00    0.0000000000000000E+00
 -0.4302   0.3970    0.5137107276251104E-01    0.0000000000000000E+00    0.0000000000000000E+00    0.9209526807304402E-01   -0.6707415747331955E+00    0.0000000000000000E+00    0.0000000000000000E+00    0.0000000000000000E+00    0.0000000000000000E+00    0.0000000000000000E+00
 -0.4354   0.3709    0.4704100272650562E-01    0.0000000000000000E+00    0.0000000000000000E+00    0.1244518060775543E+00   -0.1076035420927732E+01    0.0000000000000000E+00    0.0000000000000000E+00    0.0000000000000000E+00    0.0000000000000000E+00    0.0000000000000000E+00
 -0.4409   0.3436    0.4180782634589881E-01    0.0000000000000000E+00    0.0000000000000000E+00    0.1475382616496943E+00   -0.1581604915858906E+01    0.0000000000000000E+00    0.0000000000000000E+00    0.0000000000000000E+00    0.0000000000000000E+00    0.0000000000000000E+00
 -0.4466   0.3154    0.3598015579089842E-01    0.0000000000000000E+00    0.0000000000000000E+00    0.1630229090998856E+00   -0.2190842943353001E+01    0.0000000000000000E+00    0.0000000000000000E+00    0.0000000000000000E+00    0.0000000000000000E+00    0.0000000000000000E+00
 -0.4525   0.2861    0.2989382976892523E-01    0.0000000000000000E+00    0.0000000000000000E+00    0.1732036771755151E+00   -0.2904605820499191E+01    0.0000000000000000E+00    0.0000000000000000E+00    0.0000000000000000E+00    0.0000000000000000E+00    0.0000000000000000E+00
 -0.4585   0.2561    0.2390185430359865E-01    0.0000000000000000E+00    0.0000000000000000E+00    0.1803218880201363E+00   -0.3717014576648199E+01    0.0000000000000000E+00    0.0000000000000000E+00    0.0000000000000000E+00    0.0000000000000000E+00    0.0000000000000000E+00
 -0.4647   0.2254    0.1836890994741194E-01    0.0000000000000000E+00    0.0000000000000000E+00    0.1861032058350694E+00   -0.4612027303714129E+01    0.0000000000000000E+00    0.0000000000000000E+00    0.0000000000000000E+00    0.0000000000000000E+00    0.0000000000000000E+00
 -0.4710   0.1942    0.1366176900138917E-01    0.0000000000000000E+00    0.0000000000000000E+00    0.1916438435300881E+00   -0.5562374180822365E+01    0.0000000000000000E+00    0.0000000000000000E+00    0.0000000000000000E+00    0.0000000000000000E+00    0.0000000000000000E+00
 -0.4773   0.1625    0.1012922858727483E-01    0.0000000000000000E+00    0.0000000000000000E+00    0.1975393174183195E+00   -0.6531071751670437E+01    0.0000000000000000E+00    0.0000000000000000E+00    0.0000000000000000E+00    0.0000000000000000E+00    0.0000000000000000E+00
 -0.4837   0.1306    0.8072038669924911E-02    0.0000000000000000E+00    0.0000000000000000E+00    0.2040816054533392E+00   -0.7474584757577039E+01    0.0000000000000000E+00    0.0000000000000000E+00    0.0000000000000000E+00    0.0000000000000000E+00    0.0000000000000000E+00
 -0.4902   0.0985    0.7708768559450576E-02    0.0000000000000000E+00    0.0000000000000000E+00    0.2114129316863418E+00   -0.8346307192624247E+01    0.0000000000000000E+00    0.0000000000000000E+00    0.0000000000000000E+00    0.0000000000000000E+00    0.0000000000000000E+00
 -0.4966   0.0665    0.9144042750885258E-02    0.0000000000000000E+00    0.0000000000000000E+00    0.2196111146067889E+00   -0.9099390843597215E+01    0.0000000000000000E+00    0.0000000000000000E+00    0.0000000000000000E+00    0.0000000000000000E+00    0.0000000000000000E+00
 -0.5031   0.0346    0.1234313528978752E-01    0.0000000000000000E+00    0.0000000000000000E+00    0.2287258095574812E+00   -0.9688767843182911E+01    0.0000000000000000E+00    0.0000000000000000E+00    0.0000000000000000E+00    0.0000000000000000E+00    0.0000000000000000E+00
 -0.5094   0.0029    0.1711487261719468E-01    0.0000000000000000E+00    0.0000000000000000E+00    0.2387897483467853E+00   -0.1007296571214152E+02    0.0000000000000000E+00    0.0000000000000000E+00    0.0000000000000000E+00    0.0000000000000000E+00    0.0000000000000000E+00
 -0.5157  -0.0283    0.2310547984097265E-01    0.0000000000000000E+00    0.0000000000000000E+00    0.2498198010966144E+00   -0.1021666236903970E+02    0.0000000000000000E+00    0.0000000000000000E+00    0.0000000000000000E+00    0.0000000000000000E+00    0.0000000000000000E+00
 -0.5219  -0.0590    0.2980852935929806E-01    0.0000000000000000E+00    0.0000000000000000E+00    0.2618145897602759E+00   -0.1009467188226806E+02    0.0000000000000000E+00    0.0000000000000000E+00    0.0000000000000000E+00    0.0000000000000000E+00    0.0000000000000000E+00
 -0.5279  -0.0890    0.3659810019897690E-01    0.0000000000000000E+00    0.0000000000000000E+00    0.2747513931702622E+00   -0.9697265279763544E+01    0.0000000000000000E+00    0.0000000000000000E+00    0.0000000000000000E+00    0.0000000000000000E+00    0.0000000000000000E+00
 -0.5338  -0.1183    0.4279012726222808E-01    0.0000000000000000E+00    0.0000000000000000E+00    0.2885836174217716E+00   -0.9035623565678867E+01    0.0000000000000000E+00    0.0000000000000000E+00    0.0000000000000000E+00    0.0000000000000000E+00    0.0000000000000000E+00
 -0.5395  -0.1465    0.4772913557277290E-01    0.0000000000000000E+00    0.0000000000000000E+00    0.3032395259614027E+00   -0.8145282081519472E+01    0.0000000000000000E+00    0.0000000000000000E+00    0.0000000000000000E+00    0.0000000000000000E+00    0.0000000000000000E+00
 -0.5449  -0.1738    0.5088554188852298E-01    0.0000000000000000E+00    0.0000000000000000E+00    0.3186224026168499E+00   -0.7085254505828504E+01    0.0000000000000000E+00    0.0000000000000000E+00    0.0000000000000000E+00    0.0000000000000000E+00    0.0000000000000000E+00
 -0.5502  -0.1999    0.5193869401531934E-01    0.0000000000000000E+00    0.0000000000000000E+00    0.3346116215639515E+00   -0.5931596471273141E+01    0.0000000000000000E+00    0.0000000000000000E+00    0.0000000000000000E+00    0.0000000000000000E+00    0.0000000000000000E+00
 -0.5552  -0.2247    0.5082005759635538E-01    0.0000000000000000E+00    0.0000000000000000E+00    0.3510633777524892E+00   -0.4766288172146305E+01    0.0000000000000000E+00    0.0000000000000000E+00    0.0000000000000000E+00    0.0000000000000000E+00    0.0000000000000000E+00
 -0.5599  -0.2481    0.4770305777263400E-01    0.0000000000000000E+00    0.0000000000000000E+00    0.3678095362014506E+00   -0.3664462193160786E+01    0.0000000000000000E+00    0.0000000000000000E+00    0.0000000000000000E+00    0.0000000000000000E+00    0.0000000000000000E+00
 -0.5643  -0.2700    0.4294570399875679E-01    0.0000000000000000E+00    0.0000000000000000E+00    0.3846537240354919E+00   -0.2683885341378581E+01    0.0000000000000000E+00    0.0000000000000000E+00    0.0000000000000000E+00    0.0000000000000000E+00    0.0000000000000000E+00
 -0.5684  -0.2903    0.3700861311053352E-01    0.0000000000000000E+00    0.0000000000000000E+00    0.4013656411177425E+00   -0.1859585535904756E+01    0.0000000000000000E+00    0.0000000000000000E+00    0.0000000000000000E+00    0.0000000000000000E+00    0.0000000000000000E+00
 -0.5721  -0.3090    0.3037549742002164E-01    0.0000000000000000E+00    0.0000000000000000E+00    0.4176770376970970E+00   -0.1204282728231118E+01    0.0000000000000000E+00    0.0000000000000000E+00    0.0000000000000000E+00    0.0000000000000000E+00    0.0000000000000000E+00
 -0.5755  -0.3260    0.2349552342322066E-01    0.0000000000000000E+00    0.0000000000000000E+00    0.4332844131323204E+00   -0.7130553578621752E+00    0.0000000000000000E+00    0.0000000000000000E+00    0.0000000000000000E+00    0.0000000000000000E+00    0.0000000000000000E+00
 -0.5786  -0.3411    0.1675373606860856E-01    0.0000000000000000E+00    0.0000000000000000E+00    0.4478625090877472E+00   -0.3696272320193741E+00    0.0000000000000000E+00    0.0000000000000000E+00    0.0000000000000000E+00    0.0000000000000000E+00    0.0000000000000000E+00
 -0.5812  -0.3543    0.1046437489168282E-01    0.0000000000000000E+00    0.0000000000000000E+00    0.4610885558871443E+00   -0.1517006210443858E+00    0.0000000000000000E+00    0.0000000000000000E+00    0.0000000000000000E+00    0.0000000000000000E+00    0.0000000000000000E+00
 -0.5835  -0.3656    0.4876070062312839E-02    0.0000000000000000E+00    0.0000000000000000E+00    0.4726716277470747E+00   -0.3395935420770416E-01    0.0000000000000000E+00    0.0000000000000000E+00    0.0000000000000000E+00    0.0000000000000000E+00    0.0000000000000000E+00
 -0.5854  -0.3749    0.1769947385155779E-03    0.0000000000000000E+00    0.0000000000000000E+00    0.4823776527094568E+00    0.1140215564438790E-01    0.0000000000000000E+00    0.0000000000000000E+00    0.0000000000000000E+00    0.0000000000000000E+00    0.0000000000000000E+00
 -0.5868  -0.3822   -0.3507176898829023E-02    0.0000000000000000E+00    0.0000000000000000E+00    0.4900414160592058E+00    0.1435088825816700E-01    0.0000000000000000E+00    0.0000000000000000E+00    0.0000000000000000E+00    0.0000000000000000E+00    0.0000000000000000E+00
 -0.5879  -0.3875   -0.6121352778168244E-02    0.0000000000000000E+00    0.0000000000000000E+00    0.4955624718392952E+00    0.4307788517795813E-02    0.0000000000000000E+00    0.0000000000000000E+00    0.0000000000000000E+00    0.0000000000000000E+00    0.0000000000000000E+00
 -0.5885  -0.3906   -0.7680466437260795E-02    0.0000000000000000E+00    0.0000000000000000E+00    0.4988892208475044E+00   -0.1094771375728617E-03    0.0000000000000000E+00    0.0000000000000000E+00    0.0000000000000000E+00    0.0000000000000000E+00    0.0000000000000000E+00
 -0.5887  -0.3916   -0.8202160579817177E-02    0.0000000000000000E+00    0.0000000000000000E+00    0.5000000000000000E+00    0.0000000000000000E+00    0.0000000000000000E+00    0.0000000000000000E+00    0.0000000000000000E+00    0.0000000000000000E+00    0.0000000000000000E+00
 -0.3906   0.5885    0.2530759897059770E-01    0.0000000000000000E+00    0.0000000000000000E+00   -0.5000000000000000E+00   -0.8166592926581820E-04    0.0000000000000000E+00    0.0000000000000000E+00    0.0000000000000000E+00    0.0000000000000000E+00    0.0000000000000000E+00
 -0.3908   0.5875    0.2582810558182405E-01    0.2113674767375790E-06   -0.2114635053331480E-06   -0.4957515399465892E+00   -0.5471933011561437E-03   -0.1434234861745130E-09    0.1238129747381869E-08   -0.1316894997997059E-12   -0.1460420326337974E-12   -0.6840949790150319E-11
 -0.3914   0.5843    0.2736554554776040E-01    0.4164164892236564E-05   -0.1016246128154789E-05   -0.4830263322141035E+00   -0.3675659870299628E-02   -0.2259415280693631E-08    0.1237419055893571E-08   -0.1839808687342792E-12   -0.1968169550947696E-12   -0.2849733079721140E-10
 -0.3925   0.5791    0.2985871633594388E-01    0.1441735505365874E-04   -0.1047072770847102E-05   -0.4618966858643060E+00   -0.1182644607057979E-01   -0.8057242228862590E-08    0.1237700407875214E-08   -0.1817929487502035E-12   -0.1855104611592218E-12   -0.6384077034377045E-10
 -0.3940   0.5718    0.3319349889082748E-01    0.2498496261295401E-04   -0.4843654120691737E-06   -0.4325219783456757E+00   -0.2072609629719695E-01   -0.1384974212113660E-07    0.1239720955883636E-08   -0.5141217312987223E-12   -0.1391994158828069E-12   -0.1123543879461009E-09
 -0.3958   0.5625    0.3717228004082787E-01    0.2673831790859970E-04    0.2533206677119439E-06   -0.3952040886221052E+00   -0.2220471333832546E-01   -0.1485088269981104E-07    0.1243023885536508E-08   -0.1558397508261145E-11   -0.9683790228032230E-13   -0.1722175110852042E-09
 -0.3981   0.5512    0.4151946117722374E-01    0.1453746868590605E-04    0.8409139186590131E-06   -0.3504579699065117E+00   -0.1155113352701724E-01   -0.8159551104394378E-08    0.1246554729448027E-08   -0.3485446306572548E-11   -0.1010433056669591E-12   -0.2384216574169429E-09
 -0.4008   0.5380    0.4590228781764780E-01   -0.1011969331452455E-04    0.1080878715662646E-05   -0.2990920795768079E+00    0.1001799496913297E-01    0.5296649473007869E-08    0.1248914311812593E-08   -0.6236548170251988E-11   -0.7286098807623986E-13   -0.3020886665816569E-09
 -0.4038   0.5229    0.4995684804639958E-01   -0.3868681788644201E-04    0.8765119686672506E-06   -0.2422936577040432E+00    0.3469271281637835E-01    0.2098209178373679E-07    0.1248805237604594E-08   -0.9517549075244158E-11   -0.8305205481673461E-13   -0.3460336461813540E-09
 -0.4072   0.5059    0.5331873147158170E-01   -0.5617474176562206E-04    0.1882074368066760E-06   -0.1817072217387751E+00    0.4873452976400960E-01    0.3076725551162871E-07    0.1245151704670506E-08   -0.1292137924435721E-10   -0.1095258324139425E-12   -0.3461542580351917E-09
 -0.4110   0.4872    0.5565909938553396E-01   -0.4244243009315997E-04   -0.9689583798064381E-06   -0.1194780643805263E+00    0.3358965158157721E-01    0.2386659349674906E-07    0.1236916638124724E-08   -0.1604094634899411E-10   -0.1334019700260924E-12   -0.2706855156686672E-09
 -0.4151   0.4669    0.5672337237121987E-01    0.2507429738808789E-04   -0.2507220471228661E-05   -0.5821119530178686E-01   -0.3152964683347886E-01   -0.1188903427490534E-07    0.1222626715147168E-08   -0.1860004511522462E-10   -0.1652879222380221E-12   -0.8530615103197192E-10
 -0.4195   0.4450    0.5636367232836715E-01    0.1672282255407898E-03   -0.4271923024970789E-05   -0.7835792670758943E-03   -0.1659059644326019E+00   -0.8766959963064548E-07    0.1199811071675438E-08   -0.2046825209323089E-10   -0.2028759105154876E-12    0.2374443280883654E-09
 -0.4242   0.4215    0.5455495927163447E-01    0.3993125898807116E-03   -0.6094787415606595E-05    0.5003318520081658E-01   -0.3837344726031677E+00   -0.2117026858875468E-06    0.1164696653357944E-08   -0.2163199480653688E-10   -0.2496544637686782E-12    0.7061013995723897E-09
 -0.4292   0.3967    0.5139058902127720E-01    0.7300401825761189E-03   -0.7867982883600517E-05    0.9210517185338751E-01   -0.6931756122364274E+00   -0.3886288781682041E-06    0.1112648632950464E-08   -0.2206752836020343E-10   -0.3050129593340500E-12    0.1299581983693621E-08
 -0.4344   0.3707    0.4706212074328316E-01    0.1163912249168025E-02   -0.9574493551923232E-05    0.1244599360697252E+00   -0.1098440835549447E+01   -0.6208726385802706E-06    0.1039327297835957E-08   -0.2166782725465666E-10   -0.3515174262780363E-12    0.1964160070699883E-08
 -0.4399   0.3434    0.4183232561355617E-01    0.1704472161013707E-02   -0.1124697197189290E-04    0.1475441761955030E+00   -0.1602750063002726E+01   -0.9103350280707446E-06    0.9419808717769929E-09   -0.2020057732199376E-10   -0.4044681256587523E-12    0.2623895337117155E-08
 -0.4456   0.3151    0.3600951146311042E-01    0.2355102719274690E-02   -0.1289426812154831E-04    0.1630266486694610E+00   -0.2209026591833609E+01   -0.1258881922308817E-05    0.8205664481231167E-09   -0.1732772259011028E-10   -0.4931055563872633E-12    0.3201379515649361E-08
 -0.4514   0.2859    0.2992871109829312E-01    0.3116365267695173E-02   -0.1445330520051919E-04    0.1732056652731898E+00   -0.2917464136742808E+01   -0.1666868682134774E-05    0.6780147103480072E-09   -0.1265333671174318E-10   -0.5489775301015243E-12    0.3641540435514456E-08
 -0.4575   0.2559    0.2394180799848907E-01    0.3981593177727841E-02   -0.1579120147725491E-04    0.1803226947707420E+00   -0.3721484529485759E+01   -0.2130799519652863E-05    0.5199173973291504E-09   -0.5755267790119589E-11   -0.6202816038580750E-12    0.3922454193915070E-08
 -0.4636   0.2252    0.1841228949666738E-01    0.4933321047558060E-02   -0.1674100061850105E-04    0.1861033314766660E+00   -0.4604501079659130E+01   -0.2641373653827065E-05    0.3541685104913039E-09    0.3697833705906817E-11   -0.6613182224057823E-12    0.4053215852956992E-08
 -0.4699   0.1940    0.1370593788708551E-01    0.5942229147913706E-02   -0.1714716751226160E-04    0.1916436203593014E+00   -0.5539007776778357E+01   -0.3182922132775325E-05    0.1903481330889356E-09    0.1580181818727766E-10   -0.7152889391903727E-12    0.4062476970708578E-08
 -0.4763   0.1623    0.1017086166117003E-01    0.6968813964172437E-02   -0.1689603031261597E-04    0.1975389206439273E+00   -0.6488187163471023E+01   -0.3734283568177008E-05    0.3921958591224239E-10    0.3033075179903477E-10   -0.7271266921904385E-12    0.3983049402019739E-08
 -0.4827   0.1304    0.8107451744669753E-02    0.7966782143762011E-02   -0.1592533748719398E-04    0.2040811091804717E+00   -0.7409089657528414E+01   -0.4270621808354622E-05   -0.8813828833442727E-10    0.4665684505411605E-10   -0.7246703237484553E-12    0.3844703386386705E-08
 -0.4891   0.0983    0.7734133630563421E-02    0.8886755667129086E-02   -0.1421231330001314E-04    0.2114123598817699E+00   -0.8256071447036080E+01   -0.4765417004963738E-05   -0.1814467326388680E-09    0.6382960826556427E-10   -0.6706579736004414E-12    0.3670726817124603E-08
 -0.4956   0.0663    0.9155525959641956E-02    0.9679268168645944E-02   -0.1175723181022439E-04    0.2196104712994429E+00   -0.8983568700610109E+01   -0.5192064605668561E-05   -0.2325476373965518E-09    0.8066824985775156E-10   -0.5878283970695009E-12    0.3476411529305945E-08
 -0.5020   0.0344    0.1233694533927184E-01    0.1029690186095335E-01   -0.8571156363797241E-05    0.2287250926807471E+00   -0.9548060264808733E+01   -0.5525041302315298E-05   -0.2365067169884938E-09    0.9590467309195105E-10   -0.4617278781537948E-12    0.3272864417848409E-08
 -0.5084   0.0027    0.1708736302321461E-01    0.1069620433365402E-01   -0.4682963153685896E-05    0.2387889551747724E+00   -0.9909843003633487E+01   -0.5740912072387195E-05   -0.1925056693913296E-09    0.1082971490262707E-09   -0.3076185139949672E-12    0.3067218880790923E-08
 -0.5146  -0.0285    0.2305333564045391E-01    0.1084038035766683E-01   -0.1609131018417224E-06    0.2498189302844197E+00   -0.1003549436978282E+02   -0.5819809402423524E-05   -0.1044652214396164E-09    0.1167387297940081E-09   -0.1250145142571088E-12    0.2863392372168261E-08
 -0.5208  -0.0592    0.2972915248927450E-01    0.1070347188093375E-01    0.4851350185587853E-05    0.2618136420531210E+00   -0.9901709691196800E+01   -0.5747648326926105E-05    0.1911679321786597E-10    0.1203769861568560E-09    0.4925226892993351E-13    0.2664225007276144E-08
 -0.5269  -0.0893    0.3649010984362117E-01    0.1027590794878034E-01    0.1010688511026320E-04    0.2747503713375487E+00   -0.9500333366067151E+01   -0.5519168986526045E-05    0.1656238479696981E-09    0.1186911680051139E-09    0.2687780553678465E-12    0.2470685848618426E-08
 -0.5327  -0.1185    0.4265392654442525E-01    0.9570150708119580E-02    0.1524639464589019E-04    0.2885825254632863E+00   -0.8843472866041573E+01   -0.5140938495853324E-05    0.3198297772455394E-09    0.1116694514635697E-09    0.4416605969836951E-12    0.2282724684624093E-08
 -0.5384  -0.1468    0.4756728005690906E-01    0.8624200893850610E-02    0.1983371172807069E-04    0.3032383676607283E+00   -0.7966580602410100E+01   -0.4633323651261115E-05    0.4660651101162649E-09    0.9988859739351597E-10    0.6613321001935901E-12    0.2099691254198177E-08
 -0.5439  -0.1740    0.5070277699249949E-01    0.7500569333978849E-02    0.2342804777095365E-04    0.3186211798296907E+00   -0.6927434281169476E+01   -0.4029881696606677E-05    0.5908502367923951E-09    0.8455414146624207E-10    0.8057304823338995E-12    0.1920204620309285E-08
 -0.5491  -0.2001    0.5174146658676903E-01    0.6279457566913105E-02    0.2568612848132270E-04    0.3346103330683545E+00   -0.5799802597277038E+01   -0.3373784569724308E-05    0.6852747119756586E-09    0.6730982438085675E-10    0.9582751259173961E-12    0.1742631284065710E-08
 -0.5541  -0.2249    0.5061565278014738E-01    0.5047093716823850E-02    0.2644405899030861E-04    0.3510620197989487E+00   -0.4662807054934677E+01   -0.2711431557318365E-05    0.7463664894458155E-09    0.4997924296645806E-10    0.1005487360039581E-11    0.1565621261107042E-08
 -0.5588  -0.2483    0.4749851383373703E-01    0.3882390841987037E-02    0.2575736671681735E-04    0.3678081057817673E+00   -0.3588727891214906E+01   -0.2085367396000123E-05    0.7768019769094359E-09    0.3419337035737158E-10    0.1005764915795737E-11    0.1388612795930055E-08
 -0.5632  -0.2702    0.4274693144144739E-01    0.2845984928834187E-02    0.2386533143953042E-04    0.3846522250617321E+00   -0.2633092341240523E+01   -0.1528222859699633E-05    0.7832935966511911E-09    0.2110150942868927E-10    0.9920536614416164E-12    0.1212530248081989E-08
 -0.5673  -0.2906    0.3681985526482102E-01    0.1974650103125540E-02    0.2111575296211914E-04    0.4013640921911633E+00   -0.1829556384340276E+01   -0.1059858992362167E-05    0.7741368240887780E-09    0.1122728299218778E-10    0.9728468031156012E-12    0.1037215766400146E-08
 -0.5711  -0.3092    0.3019933581524970E-01    0.1281755823493454E-02    0.1785988258429658E-04    0.4176754784608526E+00   -0.1190398326559724E+01   -0.6874189730547943E-06    0.7572038829284367E-09    0.4507935691400178E-11    0.9013345625419333E-12    0.8662096283307275E-09
 -0.5745  -0.3262    0.2333318147320599E-01    0.7621377075707258E-03    0.1438552994833778E-04    0.4332829053528856E+00   -0.7108663580414984E+00   -0.4081892497769864E-06    0.7384569414292663E-09    0.4815887272302533E-12    0.8586326094572883E-12    0.7021786745803338E-09
 -0.5775  -0.3413    0.1660561901142461E-01    0.3986365658747584E-03    0.1087329103047951E-04    0.4478611295721535E+00   -0.3752143703397162E+00   -0.2128533292697661E-06    0.7217016255445241E-09   -0.1521265752257861E-11    0.8262071582443298E-12    0.5488976252687738E-09
 -0.5802  -0.3545    0.1033038304519995E-01    0.1676498991861974E-03    0.7437144125751625E-05    0.4610873812767141E+00   -0.1616028390903866E+00   -0.8883533294102837E-07    0.7086375184567340E-09   -0.2181237829246285E-11    0.8060982437108066E-12    0.4101410218393386E-09
 -0.5825  -0.3658    0.4755618721519010E-02    0.4223345879247047E-04    0.4181795668516434E-05    0.4726707151122885E+00   -0.4506857399368221E-01   -0.2155054718357011E-07    0.6995878806814737E-09   -0.2097249457433392E-11    0.7698112980403238E-12    0.2880395574833550E-09
 -0.5843  -0.3752    0.6834088021008394E-04   -0.7250049771725349E-05    0.1366272072332568E-05    0.4823770228917486E+00    0.2049697054987188E-02    0.4714497875405090E-08    0.6937665875811350E-09   -0.1721785908292972E-11    0.7837020962742081E-12    0.1856827426191532E-09
 -0.5858  -0.3824   -0.3608099795650215E-02   -0.1263419328238125E-04   -0.5836440627583388E-06    0.4900410469723624E+00    0.9115397954312616E-02    0.7296542788935380E-08    0.6900465287064741E-09   -0.1357889495290365E-11    0.7581893012725827E-12    0.1048764304567573E-09
 -0.5868  -0.3877   -0.6221935500771024E-02   -0.4247597385506391E-05   -0.1096394061742229E-05    0.4955623052687563E+00    0.3719582983294193E-02    0.2279051647342078E-08    0.6865136989702564E-09   -0.1094194179707131E-11    0.8229168214912708E-12    0.4663478002202293E-10
 -0.5875  -0.3908   -0.7783359667882980E-02   -0.1354128160286570E-06   -0.1356428367158818E-06    0.4988891790731198E+00    0.5776876930376925E-03    0.1165414107075532E-09    0.6828004850975913E-09   -0.5568876523115440E-12    0.5644237247720563E-12    0.1178630842013292E-10
 -0.5877  -0.3919   -0.8305171607476694E-02    0.0000000000000000E+00    0.0000000000000000E+00    0.5000000000000000E+00   -0.1089373054898838E-03    0.0000000000000000E+00    0.0000000000000000E+00    0.0000000000000000E+00    0.0000000000000000E+00    0.0000000000000000E+00
 -0.3875   0.5879    0.2562434229209499E-01    0.0000000000000000E+00    0.0000000000000000E+00   -0.5000000000000000E+00   -0.4239058625910340E-02    0.0000000000000000E+00    0.0000000000000000E+00    0.0000000000000000E+00    0.0000000000000000E+00    0.0000000000000000E+00
 -0.3877   0.5868    0.2614272359668786E-01    0.1015733611826239E-05   -0.4163590781940227E-05   -0.4957500618757392E+00   -0.3674893281043369E-02   -0.2259118820020705E-08    0.1237240345765278E-08   -0.1679943619110891E-12   -0.3039663789769498E-12   -0.7202423878659159E-11
 -0.3883   0.5837    0.2767613628933597E-01    0.1192448048867070E-04   -0.1192690900929221E-04   -0.4830204161972733E+00   -0.2797549093300170E-02   -0.2986929628361415E-07    0.1237051372796061E-08   -0.4995587277178970E-12   -0.6715459351797071E-12   -0.2862448602800050E-10
 -0.3893   0.5785    0.3015910221737504E-01    0.4023585260812235E-04   -0.1337745600083503E-04   -0.4618833584731132E+00   -0.4237421995146480E-02   -0.1018128208134918E-06    0.1237441067149236E-08   -0.9397864431104352E-12   -0.5513209246771344E-12   -0.6405701490075355E-10
 -0.3908   0.5712    0.3347154517204681E-01    0.7116421426807100E-04   -0.6504487224687047E-05   -0.4324983005320025E+00   -0.7700572600990246E-02   -0.1782682487708447E-06    0.1239169114975597E-08   -0.2519630337705081E-11   -0.1126555446151478E-12   -0.1127628736913300E-09
 -0.3927   0.5619    0.3741929005429371E-01    0.7584490701623942E-04    0.3608440928295855E-05   -0.3951672274109408E+00   -0.8186028223699467E-02   -0.1906101524424482E-06    0.1242085151528446E-08   -0.6597918392192703E-11    0.3933991804191961E-12   -0.1724361035904121E-09
 -0.3950   0.5506    0.4173170744441528E-01    0.3532503309918679E-04    0.1187942058642401E-04   -0.3504052032887588E+00   -0.1531594995366156E-02   -0.9629524217726798E-07    0.1245298994131949E-08   -0.1393588976855709E-10    0.7929629175507102E-12   -0.2388369779726673E-09
 -0.3976   0.5373    0.4607970310897416E-01   -0.4559969456731407E-04    0.1510195795414800E-04   -0.2990208142838272E+00    0.1166582289791970E-01    0.9322997615447169E-07    0.1247522614725161E-08   -0.2438490197525373E-10    0.9810069423465961E-12   -0.3021569938699287E-09
 -0.4007   0.5222    0.5010182770390387E-01   -0.1352238941350848E-03    0.1161336864575626E-04   -0.2422016634412159E+00    0.2476588628113634E-01    0.3080171525956729E-06    0.1247458758686648E-08   -0.3690302750880559E-10    0.9492229051388801E-12   -0.3463869399644715E-09