 title="result"
 variables="x","y","P","u","v","t","omega","psi","RES1","RES2","RES3","RES4"
zone,j= 49,i= 49,f=point
 -0.2534   0.6601    0.2486049323823595E-01    0.0000000000000000E+00    0.0000000000000000E+00   -0.5000000000000000E+00    0.0000000000000000E+00    0.0000000000000000E+00    0.0000000000000000E+00    0.0000000000000000E+00    0.0000000000000000E+00    0.0000000000000000E+00
 -0.2538   0.6592    0.2534673862647949E-01    0.0000000000000000E+00    0.0000000000000000E+00   -0.4951363553436658E+00    0.3344622482464524E-03    0.0000000000000000E+00    0.0000000000000000E+00    0.0000000000000000E+00    0.0000000000000000E+00    0.0000000000000000E+00
 -0.2551   0.6562    0.2675600678940965E-01    0.0000000000000000E+00    0.0000000000000000E+00   -0.4805690869576407E+00   -0.4489798145022083E-02    0.0000000000000000E+00    0.0000000000000000E+00    0.0000000000000000E+00    0.0000000000000000E+00    0.0000000000000000E+00
 -0.2573   0.6514    0.2901093364668992E-01    0.0000000000000000E+00    0.0000000000000000E+00   -0.4563865728054936E+00   -0.3689121384116154E-01    0.0000000000000000E+00    0.0000000000000000E+00    0.0000000000000000E+00    0.0000000000000000E+00    0.0000000000000000E+00
 -0.2603   0.6446    0.3205557133106724E-01    0.0000000000000000E+00    0.0000000000000000E+00   -0.4227975345887344E+00   -0.1115833441040438E+00    0.0000000000000000E+00    0.0000000000000000E+00    0.0000000000000000E+00    0.0000000000000000E+00    0.0000000000000000E+00
 -0.2642   0.6359    0.3579207244221990E-01    0.0000000000000000E+00    0.0000000000000000E+00   -0.3802332699945272E+00   -0.2235695415745592E+00    0.0000000000000000E+00    0.0000000000000000E+00    0.0000000000000000E+00    0.0000000000000000E+00    0.0000000000000000E+00
 -0.2689   0.6254    0.4003448289329330E-01    0.0000000000000000E+00    0.0000000000000000E+00   -0.3294950621917287E+00   -0.3538934434898660E+00    0.0000000000000000E+00    0.0000000000000000E+00    0.0000000000000000E+00    0.0000000000000000E+00    0.0000000000000000E+00
 -0.2744   0.6130    0.4449744359842973E-01    0.0000000000000000E+00    0.0000000000000000E+00   -0.2719153031936933E+00   -0.4770633611954803E+00    0.0000000000000000E+00    0.0000000000000000E+00    0.0000000000000000E+00    0.0000000000000000E+00    0.0000000000000000E+00
 -0.2807   0.5989    0.4880502176982159E-01    0.0000000000000000E+00    0.0000000000000000E+00   -0.2094660056530741E+00   -0.5698870442343922E+00    0.0000000000000000E+00    0.0000000000000000E+00    0.0000000000000000E+00    0.0000000000000000E+00    0.0000000000000000E+00
 -0.2877   0.5832    0.5252829302238891E-01    0.0000000000000000E+00    0.0000000000000000E+00   -0.1447359251855048E+00   -0.6204937145141588E+00    0.0000000000000000E+00    0.0000000000000000E+00    0.0000000000000000E+00    0.0000000000000000E+00    0.0000000000000000E+00
 -0.2954   0.5658    0.5524665584874273E-01    0.0000000000000000E+00    0.0000000000000000E+00   -0.8073013994145459E-01   -0.6355822593507461E+00    0.0000000000000000E+00    0.0000000000000000E+00    0.0000000000000000E+00    0.0000000000000000E+00    0.0000000000000000E+00
 -0.3039   0.5468    0.5662620290407248E-01    0.0000000000000000E+00    0.0000000000000000E+00   -0.2051587175503110E-01   -0.6417670927109621E+00    0.0000000000000000E+00    0.0000000000000000E+00    0.0000000000000000E+00    0.0000000000000000E+00    0.0000000000000000E+00
 -0.3130   0.5264    0.5648677968666430E-01    0.0000000000000000E+00    0.0000000000000000E+00    0.3319915955067373E-01   -0.6782352502693417E+00    0.0000000000000000E+00    0.0000000000000000E+00    0.0000000000000000E+00    0.0000000000000000E+00    0.0000000000000000E+00
 -0.3227   0.5045    0.5482801843149936E-01    0.0000000000000000E+00    0.0000000000000000E+00    0.7845512056752184E-01   -0.7834803522664577E+00    0.0000000000000000E+00    0.0000000000000000E+00    0.0000000000000000E+00    0.0000000000000000E+00    0.0000000000000000E+00
 -0.3330   0.4814    0.5180123526443717E-01    0.0000000000000000E+00    0.0000000000000000E+00    0.1143171145707754E+00   -0.9842001570172695E+00    0.0000000000000000E+00    0.0000000000000000E+00    0.0000000000000000E+00    0.0000000000000000E+00    0.0000000000000000E+00
 -0.3438   0.4571    0.4765043077847711E-01    0.0000000000000000E+00    0.0000000000000000E+00    0.1409804448652620E+00   -0.1292975980862428E+01    0.0000000000000000E+00    0.0000000000000000E+00    0.0000000000000000E+00    0.0000000000000000E+00    0.0000000000000000E+00
 -0.3551   0.4318    0.4265854847802313E-01    0.0000000000000000E+00    0.0000000000000000E+00    0.1596528595820879E+00   -0.1713301534989263E+01    0.0000000000000000E+00    0.0000000000000000E+00    0.0000000000000000E+00    0.0000000000000000E+00    0.0000000000000000E+00
 -0.3668   0.4054    0.3712007417787869E-01    0.0000000000000000E+00    0.0000000000000000E+00    0.1722096177546033E+00   -0.2245043742439667E+01    0.0000000000000000E+00    0.0000000000000000E+00    0.0000000000000000E+00    0.0000000000000000E+00    0.0000000000000000E+00
 -0.3789   0.3782    0.3133518554142185E-01    0.0000000000000000E+00    0.0000000000000000E+00    0.1807165999470687E+00   -0.2885650598282739E+01    0.0000000000000000E+00    0.0000000000000000E+00    0.0000000000000000E+00    0.0000000000000000E+00    0.0000000000000000E+00
 -0.3914   0.3502    0.2561310532991534E-01    0.0000000000000000E+00    0.0000000000000000E+00    0.1869965850993436E+00   -0.3627915158432605E+01    0.0000000000000000E+00    0.0000000000000000E+00    0.0000000000000000E+00    0.0000000000000000E+00    0.0000000000000000E+00
 -0.4041   0.3216    0.2027458924627214E-01    0.0000000000000000E+00    0.0000000000000000E+00    0.1923885597093303E+00   -0.4457329270359991E+01    0.0000000000000000E+00    0.0000000000000000E+00    0.0000000000000000E+00    0.0000000000000000E+00    0.0000000000000000E+00
 -0.4171   0.2925    0.1564801210149550E-01    0.0000000000000000E+00    0.0000000000000000E+00    0.1977302390416755E+00   -0.5351036006809506E+01    0.0000000000000000E+00    0.0000000000000000E+00    0.0000000000000000E+00    0.0000000000000000E+00    0.0000000000000000E+00
 -0.4302   0.2630    0.1205558221291152E-01    0.0000000000000000E+00    0.0000000000000000E+00    0.2034808282816752E+00   -0.6278682214150366E+01    0.0000000000000000E+00    0.0000000000000000E+00    0.0000000000000000E+00    0.0000000000000000E+00    0.0000000000000000E+00
 -0.4435   0.2332    0.9791072594282059E-02    0.0000000000000000E+00    0.0000000000000000E+00    0.2098729479128461E+00   -0.7204523854299710E+01    0.0000000000000000E+00    0.0000000000000000E+00    0.0000000000000000E+00    0.0000000000000000E+00    0.0000000000000000E+00
 -0.4568   0.2034    0.9093249392571634E-02    0.0000000000000000E+00    0.0000000000000000E+00    0.2170265017455354E+00   -0.8089734060018047E+01    0.0000000000000000E+00    0.0000000000000000E+00    0.0000000000000000E+00    0.0000000000000000E+00    0.0000000000000000E+00
 -0.4701   0.1735    0.1011978401581101E-01    0.0000000000000000E+00    0.0000000000000000E+00    0.2250117629523984E+00   -0.8894095284682949E+01    0.0000000000000000E+00    0.0000000000000000E+00    0.0000000000000000E+00    0.0000000000000000E+00    0.0000000000000000E+00
 -0.4833   0.1437    0.1292358829810893E-01    0.0000000000000000E+00    0.0000000000000000E+00    0.2338764606626312E+00   -0.9576817974419152E+01    0.0000000000000000E+00    0.0000000000000000E+00    0.0000000000000000E+00    0.0000000000000000E+00    0.0000000000000000E+00
 -0.4964   0.1143    0.1743186083658079E-01    0.0000000000000000E+00    0.0000000000000000E+00    0.2436541635027809E+00   -0.1009698630734392E+02    0.0000000000000000E+00    0.0000000000000000E+00    0.0000000000000000E+00    0.0000000000000000E+00    0.0000000000000000E+00
 -0.5094   0.0851    0.2342823946712411E-01    0.0000000000000000E+00    0.0000000000000000E+00    0.2543646911422055E+00   -0.1041459971490064E+02    0.0000000000000000E+00    0.0000000000000000E+00    0.0000000000000000E+00    0.0000000000000000E+00    0.0000000000000000E+00
 -0.5221   0.0565    0.3054199991044507E-01    0.0000000000000000E+00    0.0000000000000000E+00    0.2660115329404021E+00   -0.1049329922960003E+02    0.0000000000000000E+00    0.0000000000000000E+00    0.0000000000000000E+00    0.0000000000000000E+00    0.0000000000000000E+00
 -0.5346   0.0286    0.3825238579129880E-01    0.0000000000000000E+00    0.0000000000000000E+00    0.2785783874038034E+00   -0.1030537161690238E+02    0.0000000000000000E+00    0.0000000000000000E+00    0.0000000000000000E+00    0.0000000000000000E+00    0.0000000000000000E+00
 -0.5467   0.0013    0.4591880616164266E-01    0.0000000000000000E+00    0.0000000000000000E+00    0.2920259342806742E+00   -0.9838673209205208E+01    0.0000000000000000E+00    0.0000000000000000E+00    0.0000000000000000E+00    0.0000000000000000E+00    0.0000000000000000E+00
 -0.5585  -0.0250    0.5284436818445042E-01    0.0000000000000000E+00    0.0000000000000000E+00    0.3062896340435318E+00   -0.9103747795015076E+01    0.0000000000000000E+00    0.0000000000000000E+00    0.0000000000000000E+00    0.0000000000000000E+00    0.0000000000000000E+00
 -0.5698  -0.0504    0.5836980121219067E-01    0.0000000000000000E+00    0.0000000000000000E+00    0.3212790454982068E+00   -0.8138352991357634E+01    0.0000000000000000E+00    0.0000000000000000E+00    0.0000000000000000E+00    0.0000000000000000E+00    0.0000000000000000E+00
 -0.5806  -0.0747    0.6197939522970623E-01    0.0000000000000000E+00    0.0000000000000000E+00    0.3368785814014451E+00   -0.7006492435847719E+01    0.0000000000000000E+00    0.0000000000000000E+00    0.0000000000000000E+00    0.0000000000000000E+00    0.0000000000000000E+00
 -0.5909  -0.0978    0.6338860528413982E-01    0.0000000000000000E+00    0.0000000000000000E+00    0.3529488185337583E+00   -0.5790649422093508E+01    0.0000000000000000E+00    0.0000000000000000E+00    0.0000000000000000E+00    0.0000000000000000E+00    0.0000000000000000E+00
 -0.6006  -0.1196    0.6258375914663888E-01    0.0000000000000000E+00    0.0000000000000000E+00    0.3693267913955441E+00   -0.4578633789753553E+01    0.0000000000000000E+00    0.0000000000000000E+00    0.0000000000000000E+00    0.0000000000000000E+00    0.0000000000000000E+00
 -0.6097  -0.1401    0.5980080215401144E-01    0.0000000000000000E+00    0.0000000000000000E+00    0.3858237369524843E+00   -0.3449074692023222E+01    0.0000000000000000E+00    0.0000000000000000E+00    0.0000000000000000E+00    0.0000000000000000E+00    0.0000000000000000E+00
 -0.6181  -0.1590    0.5545418785262401E-01    0.0000000000000000E+00    0.0000000000000000E+00    0.4022200829323889E+00   -0.2460197036088831E+01    0.0000000000000000E+00    0.0000000000000000E+00    0.0000000000000000E+00    0.0000000000000000E+00    0.0000000000000000E+00
 -0.6259  -0.1764    0.5004445663001334E-01    0.0000000000000000E+00    0.0000000000000000E+00    0.4182600368348429E+00   -0.1644982455457309E+01    0.0000000000000000E+00    0.0000000000000000E+00    0.0000000000000000E+00    0.0000000000000000E+00    0.0000000000000000E+00
 -0.6329  -0.1922    0.4407523198971489E-01    0.0000000000000000E+00    0.0000000000000000E+00    0.4336507530041073E+00   -0.1012782058465394E+01    0.0000000000000000E+00    0.0000000000000000E+00    0.0000000000000000E+00    0.0000000000000000E+00    0.0000000000000000E+00
 -0.6392  -0.2063    0.3799851960596666E-01    0.0000000000000000E+00    0.0000000000000000E+00    0.4480716122314977E+00   -0.5551411628081291E+00    0.0000000000000000E+00    0.0000000000000000E+00    0.0000000000000000E+00    0.0000000000000000E+00    0.0000000000000000E+00
 -0.6447  -0.2186    0.3219144783589180E-01    0.0000000000000000E+00    0.0000000000000000E+00    0.4611959706636770E+00   -0.2523548406531490E+00    0.0000000000000000E+00    0.0000000000000000E+00    0.0000000000000000E+00    0.0000000000000000E+00    0.0000000000000000E+00
 -0.6493  -0.2292    0.2695456394975908E-01    0.0000000000000000E+00    0.0000000000000000E+00    0.4727214734032783E+00   -0.7817669239703894E-01    0.0000000000000000E+00    0.0000000000000000E+00    0.0000000000000000E+00    0.0000000000000000E+00    0.0000000000000000E+00
 -0.6532  -0.2378    0.2251677066878475E-01    0.0000000000000000E+00    0.0000000000000000E+00    0.4823991595916646E+00   -0.1338472701918326E-02    0.0000000000000000E+00    0.0000000000000000E+00    0.0000000000000000E+00    0.0000000000000000E+00    0.0000000000000000E+00
 -0.6562  -0.2446    0.1903323358176554E-01    0.0000000000000000E+00    0.0000000000000000E+00    0.4900503984289956E+00    0.1395250186738696E-01    0.0000000000000000E+00    0.0000000000000000E+00    0.0000000000000000E+00    0.0000000000000000E+00    0.0000000000000000E+00
 -0.6584  -0.2495    0.1657443119220549E-01    0.0000000000000000E+00    0.0000000000000000E+00    0.4955659176448791E+00    0.5359777761056352E-02    0.0000000000000000E+00    0.0000000000000000E+00    0.0000000000000000E+00    0.0000000000000000E+00    0.0000000000000000E+00
 -0.6597  -0.2524    0.1511919397013759E-01    0.0000000000000000E+00    0.0000000000000000E+00    0.4988900505092746E+00   -0.5809324836208678E-04    0.0000000000000000E+00    0.0000000000000000E+00    0.0000000000000000E+00    0.0000000000000000E+00    0.0000000000000000E+00
 -0.6601  -0.2534    0.1463412847197900E-01    0.0000000000000000E+00    0.0000000000000000E+00    0.5000000000000000E+00    0.0000000000000000E+00    0.0000000000000000E+00    0.0000000000000000E+00    0.0000000000000000E+00    0.0000000000000000E+00    0.0000000000000000E+00
 -0.2524   0.6597    0.2507857328021541E-01    0.0000000000000000E+00    0.0000000000000000E+00   -0.5000000000000000E+00    0.3346747248150003E-03    0.0000000000000000E+00    0.0000000000000000E+00    0.0000000000000000E+00    0.0000000000000000E+00    0.0000000000000000E+00
 -0.2529   0.6587    0.2556376124298775E-01    0.3523079955798871E-07   -0.3509382401134296E-07   -0.4951362135356885E+00   -0.6419082735816280E-03   -0.1109171711573061E-10    0.2006073207398186E-09   -0.7559690720637668E-12   -0.7559335102325093E-12    0.1118209312037793E-10
 -0.2542   0.6558    0.2697461763995915E-01    0.6154627345343235E-05   -0.1994341690098092E-05   -0.4805685120772830E+00   -0.7430087786580806E-02   -0.3032502120867908E-08    0.1953794842926571E-09   -0.1387396274254993E-11   -0.1133489135884957E-11    0.4483614694794635E-10
 -0.2563   0.6509    0.2923203402301368E-01    0.3944002424654013E-04   -0.4613507682660565E-05   -0.4563852301588645E+00   -0.3700572517949074E-01   -0.2117046123057507E-07    0.1905445436850561E-09   -0.1303232261690157E-11   -0.1068610477883425E-11    0.1009124069029088E-09
 -0.2594   0.6441    0.3227067343732854E-01    0.1158945377837559E-03   -0.6271104563217342E-05   -0.4227950169294989E+00   -0.1051198261224646E+00   -0.6264564258948684E-07    0.1873936665564013E-09   -0.9218979746261624E-12   -0.1118077852524380E-11    0.1799963997295428E-09
 -0.2632   0.6355    0.3599058337916474E-01    0.2318369663694167E-03   -0.6700733995485098E-05   -0.3802291321315021E+00   -0.2096669257099082E+00   -0.1254313803017747E-06    0.1854560897213142E-09   -0.4572453526918707E-12   -0.1100248364638290E-11    0.2830909152928829E-09
 -0.2679   0.6249    0.4020726464926631E-01    0.3680891170478905E-03   -0.5916377281070346E-05   -0.3294889169738718E+00   -0.3338734641263462E+00   -0.1989210795270014E-06    0.1845179165710364E-09   -0.1665889648450047E-12   -0.1116225167852036E-11    0.4114405621757911E-09
 -0.2734   0.6126    0.4463759751198485E-01    0.4981761249654942E-03   -0.4387781860366177E-05   -0.2719069499867600E+00   -0.4537150445466807E+00   -0.2688818244461759E-06    0.1836004855093609E-09   -0.2581823643765802E-12   -0.1072843203164808E-11    0.5693148591445762E-09
 -0.2797   0.5985    0.4890903028436708E-01    0.5976996183113654E-03   -0.2553854101682901E-05   -0.2094555412354118E+00   -0.5468248440909739E+00   -0.3221178543668956E-06    0.1814719754675287E-09   -0.8505349202714285E-12   -0.1044848235709495E-11    0.7595803291904346E-09
 -0.2867   0.5827    0.5259645381255815E-01    0.6539848600336563E-03   -0.1007141250438887E-05   -0.1447237809948859E+00   -0.6013718025153726E+00   -0.3518800247492912E-06    0.1764459205914198E-09   -0.1966690699184426E-11   -0.1023317715287408E-11    0.9865795125296728E-09
 -0.2945   0.5653    0.5528305067430671E-01    0.6737839770467063E-03   -0.2091378396540080E-06   -0.8071701959490871E-01   -0.6232804742505974E+00   -0.3618267314458838E-06    0.1665656794349463E-09   -0.3583678492846687E-11   -0.1051353448744408E-11    0.1250099149197048E-08
 -0.3029   0.5464    0.5663758533965162E-01    0.6847946875079308E-03   -0.4580584487672230E-06   -0.2050261742411592E-01   -0.6376672261739849E+00   -0.3669450777644429E-06    0.1494896580654659E-09   -0.5615051826279860E-11   -0.9689762013598280E-12    0.1541992006304227E-08
 -0.3120   0.5259    0.5648080556823049E-01    0.7280601326451432E-03   -0.1671985484702141E-05    0.3321170951655053E-01   -0.6820261841887256E+00   -0.3893512097239772E-06    0.1228809506405304E-09   -0.7907216548197482E-11   -0.9662982219937888E-12    0.1840755589621601E-08
 -0.3217   0.5041    0.5481152864907830E-01    0.8441081354129060E-03   -0.3531640048320875E-05    0.7846624087518524E-01   -0.7935730981732028E+00   -0.4508685042865150E-06    0.8493351248001213E-10   -0.1022429363395361E-10   -0.9104765552603311E-12    0.2109492538981961E-08
 -0.3320   0.4810    0.5177949885971559E-01    0.1061246396626367E-02   -0.5619943825750618E-05    0.1143262735422901E+00   -0.9985018876720870E+00   -0.5666933733268405E-06    0.3505771888068221E-10   -0.1229982088402082E-10   -0.8710740462269939E-12    0.2300774223917834E-08
 -0.3428   0.4567    0.4762730731729477E-01    0.1392969389877757E-02   -0.7683855012930188E-05    0.1409873737911336E+00   -0.1309443213749603E+01   -0.7440464913129475E-06   -0.2582459766864442E-10   -0.1386522147095448E-10   -0.8459899447643693E-12    0.2368559764986955E-08
 -0.3541   0.4313    0.4263692730815479E-01    0.1843086979616949E-02   -0.9622906968982289E-05    0.1596575948655041E+00   -0.1730024942768258E+01   -0.9849561691930717E-06   -0.9533398376282420E-10   -0.1467439364466472E-10   -0.8066117218596958E-12    0.2284774858890559E-08
 -0.3658   0.4050    0.3710198779685631E-01    0.2411395387283625E-02   -0.1144053934961057E-04    0.1722124728992579E+00   -0.2259998914012867E+01   -0.1289320903812219E-05   -0.1702421502380869E-09   -0.1443387076527358E-10   -0.7209233210403454E-12    0.2050558105259892E-08
 -0.3780   0.3777    0.3132163571318585E-01    0.3094962744979555E-02   -0.1310202263139448E-04    0.1807180529989606E+00   -0.2896438778883679E+01   -0.1655612355212850E-05   -0.2468280198286710E-09   -0.1282420350467994E-10   -0.6511319261548465E-12    0.1697967820166180E-08
 -0.3904   0.3498    0.2560390861808895E-01    0.3885815801552031E-02   -0.1453671405077840E-04    0.1869971279898713E+00   -0.3631655178719580E+01   -0.2079601486226851E-05   -0.3214956495467547E-09   -0.9553555863073271E-11   -0.5687533777276599E-12    0.1276120397721014E-08
 -0.4032   0.3212    0.2026842551781666E-01    0.4768199109892216E-02   -0.1562599804833783E-04    0.1923885828264454E+00   -0.4450719728209448E+01   -0.2552903694589750E-05   -0.3906387678609402E-09   -0.4438567569042817E-11   -0.5120487367449300E-12    0.8362839093098429E-09
 -0.4161   0.2920    0.1564265196361123E-01    0.5717521221767193E-02   -0.1626605407180495E-04    0.1977299912939755E+00   -0.5330548695039791E+01   -0.3062367453046888E-05   -0.4505100910379145E-09    0.2464868587015445E-11   -0.4123645869213988E-12    0.4174694877984164E-09
 -0.4292   0.2626    0.1204817523433884E-01    0.6701311169993837E-02   -0.1636607321086755E-04    0.2034804389881513E+00   -0.6240830229457478E+01   -0.3590619833226019E-05   -0.4971999027769680E-09    0.1086844503284112E-10   -0.3261835246348710E-12    0.4295318397837256E-10
 -0.4425   0.2328    0.9778411797082338E-02    0.7681484472840812E-02   -0.1587893305068199E-04    0.2098724712271940E+00   -0.7146161302684338E+01   -0.4117229825398436E-05   -0.5266570027306905E-09    0.2025318801557319E-10   -0.2271655086261148E-12   -0.2766601288339832E-09
 -0.4558   0.2029    0.9071928770516964E-02    0.8616807563716349E-02   -0.1477018795534888E-04    0.2170259542451877E+00   -0.8008332292943891E+01   -0.4620081972862841E-05   -0.5351629937810909E-09    0.2995992343102216E-10   -0.1829092433069945E-12   -0.5399108000958552E-09
 -0.4691   0.1731    0.1008625621870977E-01    0.9464694298102176E-02   -0.1302073471584610E-04    0.2250111458117045E+00   -0.8788004424203423E+01   -0.5076281232211603E-05   -0.5199476439676776E-09    0.3930439307353595E-10   -0.1157893225744999E-12   -0.7490541841306819E-09
 -0.4823   0.1433    0.1287412623151011E-01    0.1018208046254941E-01   -0.1059460674682420E-04    0.2338757700363655E+00   -0.9445509309111653E+01   -0.5462687163055519E-05   -0.4796696963238478E-09    0.4767930494864459E-10   -0.8228140391253191E-13   -0.9080196056859835E-09
 -0.4955   0.1138    0.1736253371184042E-01    0.1072590922988624E-01   -0.7455780935862477E-05    0.2436533948193107E+00   -0.9941328244362328E+01   -0.5756099935556426E-05   -0.4146447317443513E-09    0.5457484464344020E-10   -0.5747485820606357E-13   -0.1021439971667093E-08
 -0.5084   0.0847    0.2333496439060405E-01    0.1105425632194382E-01   -0.3571974328259049E-05    0.2543638409419839E+00   -0.1023713245392222E+02   -0.5933940415720297E-05   -0.3269394303895279E-09    0.5963252114327133E-10   -0.6418303388766589E-13   -0.1093703337964880E-08
 -0.5212   0.0561    0.3042080800246153E-01    0.1112922395159111E-01    0.1032549583928455E-05    0.2660105997893484E+00   -0.1029848661285159E+02   -0.5975716198425470E-05   -0.2202747936309868E-09    0.6260608698127612E-10   -0.1091123719154652E-12   -0.1129085706874644E-08
 -0.5336   0.0281    0.3809990238812106E-01    0.1092221069037182E-01    0.6241842551604694E-05    0.2785773722546111E+00   -0.1009966379487793E+02   -0.5865954182499100E-05   -0.9986184275334598E-10    0.6337241842402364E-10   -0.1167885232966626E-12   -0.1131860896674830E-08
 -0.5457   0.0009    0.4573296325036109E-01    0.1042114782713169E-01    0.1179503466774616E-04    0.2920248401939005E+00   -0.9630270314474361E+01   -0.5597999327727863E-05    0.2796695861007059E-10    0.6191258616894402E-10   -0.1693645224065676E-12   -0.1106465185099492E-08
 -0.5575  -0.0255    0.5262512784195188E-01    0.9637883381691902E-02    0.1728847630794039E-04    0.3062884651296275E+00   -0.8901888915509520E+01   -0.5178126275137846E-05    0.1562475912542105E-09    0.5839040362332071E-10   -0.1988409437103655E-12   -0.1057187597880427E-08
 -0.5688  -0.0508    0.5811970348135968E-01    0.8612796665464880E-02    0.2220832338182418E-04    0.3212778051844028E+00   -0.7952211069332444E+01   -0.4627920489163927E-05    0.2781467903223422E-09    0.5308498085554447E-10   -0.2470385007669051E-12   -0.9893113134262776E-09
 -0.5796  -0.0751    0.6170358137053769E-01    0.7413653024069545E-02    0.2603744054419287E-04    0.3368772706120579E+00   -0.6843821308283777E+01   -0.3983829503882654E-05    0.3878141280333480E-09    0.4645872575537169E-10   -0.2884775751610391E-12   -0.9068589282290596E-09
 -0.5899  -0.0982    0.6309427442590504E-01    0.6127377349071926E-02    0.2837150933000378E-04    0.3529474349266950E+00   -0.5656644247225178E+01   -0.3292581351049719E-05    0.4811703396834233E-09    0.3910111123772708E-10   -0.2831346268550305E-12   -0.8149993908912467E-09
 -0.5996  -0.1201    0.6227906282888112E-01    0.4846269535505226E-02    0.2902969720650218E-04    0.3693253310953167E+00   -0.4475287903714192E+01   -0.2603936632891769E-05    0.5563581748080360E-09    0.3161826356290476E-10   -0.2702560397693787E-12   -0.7173713081898292E-09
 -0.6087  -0.1405    0.5949363070597656E-01    0.3652859698918383E-02    0.2808319804841541E-04    0.3858221998170399E+00   -0.3375324588391962E+01   -0.1962304837788374E-05    0.6136543218016044E-09    0.2455508019139074E-10   -0.2523259379216825E-12   -0.6191740904715193E-09
 -0.6171  -0.1594    0.5515111764141150E-01    0.2608230628160592E-02    0.2581415505250968E-04    0.4022184809849872E+00   -0.2412620352830043E+01   -0.1400672790922242E-05    0.6549796538468655E-09    0.1828183437968534E-10   -0.2513406149873276E-12   -0.5226849231210196E-09
 -0.6249  -0.1769    0.4975030195412660E-01    0.1746988236230321E-02    0.2260599388910812E-04    0.4182584032777963E+00   -0.1618872138760815E+01   -0.9376086474280941E-06    0.6830843043981183E-09    0.1300312635343914E-10   -0.2551847622100922E-12   -0.4313298902075546E-09
 -0.6319  -0.1926    0.4379306361941136E-01    0.1078956305842572E-02    0.1883205692500833E-04    0.4336491472130986E+00   -0.1003047848829766E+01   -0.5784995799896231E-06    0.7009829869342177E-09    0.8769117376683511E-11   -0.2509520369287088E-12   -0.3456205668883605E-09
 -0.6382  -0.2067    0.3773018571443635E-01    0.5952176836020234E-03    0.1477412518579136E-04    0.4480701159013570E+00   -0.5569881815837230E+00   -0.3184341027807749E-06    0.7113944641701231E-09    0.5531824130711183E-11   -0.2648575803121389E-12   -0.2679890632323323E-09
 -0.6437  -0.2191    0.3193798369038810E-01    0.2749238071537970E-03    0.1061437731247087E-04    0.4611946729565913E+00   -0.2613934486896807E+00   -0.1463499048402800E-06    0.7166888853216147E-09    0.3203663029305304E-11   -0.2830444212342798E-12   -0.1990265712653594E-09
 -0.6484  -0.2296    0.2671638615673865E-01    0.9013023607256785E-04    0.6509547658263598E-05    0.4727204480647072E+00   -0.9038044592629783E-01   -0.4708511575373275E-07    0.7188055220486156E-09    0.1683559541776347E-11   -0.3008392146508498E-12   -0.1396062293546052E-09
 -0.6522  -0.2383    0.2229289529332409E-01    0.7462217486343534E-05    0.2756918150743888E-05    0.4823984421861835E+00   -0.1274347276775848E-01   -0.2983967078391569E-08    0.7193987645176536E-09    0.8442760379701042E-12   -0.3287405070384608E-12   -0.8973496685299454E-10
 -0.6553  -0.2451    0.1881979293060098E-01   -0.1121946754544486E-04   -0.7853948538236295E-07    0.4900499739452271E+00    0.6801294501221199E-02    0.6723158279163998E-08    0.7197296657515304E-09    0.5182174134255035E-12   -0.3401612758829886E-12   -0.5083005544248564E-10
 -0.6574  -0.2499    0.1636270867463403E-01   -0.4955732196581693E-05   -0.1189874345627848E-05    0.4955657251127171E+00    0.3963244922994462E-02    0.2713622074983965E-08    0.7207992943833452E-09    0.4339896497729256E-12   -0.3719403257607112E-12   -0.2228529969068582E-10
 -0.6587  -0.2529    0.1490510527123817E-01   -0.2026738758195836E-06   -0.2026975767461525E-06    0.4988900021532379E+00    0.7044977001983226E-03    0.1724769365418367E-09    0.7224122544743569E-09    0.2672434214028019E-12   -0.2553348157907642E-12   -0.5534690598624908E-11
 -0.6592  -0.2538    0.1441979801411548E-01    0.0000000000000000E+00    0.0000000000000000E+00    0.5000000000000000E+00   -0.5776943068626453E-04    0.0000000000000000E+00    0.0000000000000000E+00    0.0000000000000000E+00    0.0000000000000000E+00    0.0000000000000000E+00
 -0.2495   0.6584    0.2575080832568133E-01    0.0000000000000000E+00    0.0000000000000000E+00   -0.5000000000000000E+00   -0.4486233637476572E-02    0.0000000000000000E+00    0.0000000000000000E+00    0.0000000000000000E+00    0.0000000000000000E+00    0.0000000000000000E+00
 -0.2499   0.6574    0.2622806816558281E-01    0.1992955917196406E-05   -0.6152194948892557E-05   -0.4951341145496367E+00   -0.7428774062191642E-02   -0.3030938277160762E-08    0.1957381552848692E-09   -0.1069527794236511E-11   -0.1466262875005064E-11    0.1144796030975309E-10
 -0.2512   0.6545    0.2762939894836069E-01    0.3131067653916216E-04   -0.3131491302140596E-04   -0.4805600358775351E+00   -0.1602602734575882E-01   -0.6212097863270513E-07    0.1936593801987740E-09   -0.3168340373047029E-11   -0.3582082547248788E-11    0.4485122516439954E-10
 -0.2534   0.6496    0.2988182919396472E-01    0.1519401971130277E-03   -0.6716600852582984E-04   -0.4563656122966259E+00   -0.3814936169506258E-01   -0.3313644979086473E-06    0.1903169496997315E-09   -0.3992052348411601E-11   -0.4434386885465713E-11    0.1009184680267339E-09
 -0.2564   0.6428    0.3290066665134438E-01    0.4228386094077290E-03   -0.9327757253320956E-04   -0.4227585864715870E+00   -0.8886274830565044E-01   -0.9420833771974298E-06    0.1873218039016855E-09   -0.3331642253745493E-11   -0.4656185159657156E-11    0.1798617869225305E-09
 -0.2603   0.6342    0.3657413588231764E-01    0.8434909778452067E-03   -0.1010125437271768E-03   -0.3801696122497448E+00   -0.1727024779530554E+00   -0.1881279456922630E-05    0.1852730191487240E-09   -0.2124810744019712E-11   -0.4570527983860373E-11    0.2825648014181947E-09
 -0.2650   0.6236    0.4071821861778116E-01    0.1351270540250459E-02   -0.9111083085484269E-04   -0.3294006640531785E+00   -0.2793506285244784E+00   -0.3001561827407643E-05    0.1839716365359401E-09   -0.1423861029081763E-11   -0.4347629894985161E-11    0.4114081575412598E-09
 -0.2705   0.6113    0.4505546516837242E-01    0.1850486896752965E-02   -0.6896180801434728E-04   -0.2717867759128071E+00   -0.3893693066666035E+00   -0.4088698281586492E-05    0.1826402917792791E-09   -0.2085581707333972E-11   -0.4082390675508307E-11    0.5689508239536956E-09
 -0.2767   0.5972    0.4922265586912569E-01    0.2249214148362439E-02   -0.4196629959228501E-04   -0.2093044063844647E+00   -0.4829309424983952E+00   -0.4940639358834336E-05    0.1800410931451779E-09   -0.4606197367973408E-11   -0.3826989072863718E-11    0.7594444725866900E-09