 title="result"
 variables="x","y","P","u","v","t","omega","psi","RES1","RES2","RES3","RES4"
zone,j= 49,i= 49,f=point
 -0.3964   0.5855    0.2519871962826994E-01    0.0000000000000000E+00    0.0000000000000000E+00   -0.5000000000000000E+00    0.0000000000000000E+00    0.0000000000000000E+00    0.0000000000000000E+00    0.0000000000000000E+00    0.0000000000000000E+00    0.0000000000000000E+00
 -0.3967   0.5845    0.2572047763394642E-01    0.0000000000000000E+00    0.0000000000000000E+00   -0.4957773211939692E+00   -0.9569147984312380E-04    0.0000000000000000E+00    0.0000000000000000E+00    0.0000000000000000E+00    0.0000000000000000E+00    0.0000000000000000E+00
 -0.3973   0.5813    0.2726180754509524E-01    0.0000000000000000E+00    0.0000000000000000E+00   -0.4831293176163765E+00   -0.4251505434076967E-02    0.0000000000000000E+00    0.0000000000000000E+00    0.0000000000000000E+00    0.0000000000000000E+00    0.0000000000000000E+00
 -0.3983   0.5761    0.2976548444249979E-01    0.0000000000000000E+00    0.0000000000000000E+00   -0.4621276827987050E+00   -0.1443398589061364E-01    0.0000000000000000E+00    0.0000000000000000E+00    0.0000000000000000E+00    0.0000000000000000E+00    0.0000000000000000E+00
 -0.3997   0.5688    0.3311802977980528E-01    0.0000000000000000E+00    0.0000000000000000E+00   -0.4329299816485078E+00   -0.2310646240140153E-01    0.0000000000000000E+00    0.0000000000000000E+00    0.0000000000000000E+00    0.0000000000000000E+00    0.0000000000000000E+00
 -0.4015   0.5595    0.3711613866245202E-01    0.0000000000000000E+00    0.0000000000000000E+00   -0.3958334842362198E+00   -0.2092407317819198E-01    0.0000000000000000E+00    0.0000000000000000E+00    0.0000000000000000E+00    0.0000000000000000E+00    0.0000000000000000E+00
 -0.4036   0.5481    0.4147941309586191E-01    0.0000000000000000E+00    0.0000000000000000E+00   -0.3513430358513617E+00   -0.3465674946085827E-02    0.0000000000000000E+00    0.0000000000000000E+00    0.0000000000000000E+00    0.0000000000000000E+00    0.0000000000000000E+00
 -0.4062   0.5349    0.4587222972952144E-01    0.0000000000000000E+00    0.0000000000000000E+00   -0.3002482939732982E+00    0.2683468122402689E-01    0.0000000000000000E+00    0.0000000000000000E+00    0.0000000000000000E+00    0.0000000000000000E+00    0.0000000000000000E+00
 -0.4091   0.5197    0.4993031163139350E-01    0.0000000000000000E+00    0.0000000000000000E+00   -0.2437071273660843E+00    0.6062311077950235E-01    0.0000000000000000E+00    0.0000000000000000E+00    0.0000000000000000E+00    0.0000000000000000E+00    0.0000000000000000E+00
 -0.4124   0.5028    0.5329104199776977E-01    0.0000000000000000E+00    0.0000000000000000E+00   -0.1833260032051886E+00    0.8258761414064633E-01    0.0000000000000000E+00    0.0000000000000000E+00    0.0000000000000000E+00    0.0000000000000000E+00    0.0000000000000000E+00
 -0.4160   0.4841    0.5562876852732417E-01    0.0000000000000000E+00    0.0000000000000000E+00   -0.1212108661558944E+00    0.7301650928729150E-01    0.0000000000000000E+00    0.0000000000000000E+00    0.0000000000000000E+00    0.0000000000000000E+00    0.0000000000000000E+00
 -0.4199   0.4637    0.5669192660199167E-01    0.0000000000000000E+00    0.0000000000000000E+00   -0.5993818334935232E-01    0.1060811432535221E-01    0.0000000000000000E+00    0.0000000000000000E+00    0.0000000000000000E+00    0.0000000000000000E+00    0.0000000000000000E+00
 -0.4241   0.4417    0.5633401951855447E-01    0.0000000000000000E+00    0.0000000000000000E+00   -0.2379747208110970E-02   -0.1236705562544608E+00    0.0000000000000000E+00    0.0000000000000000E+00    0.0000000000000000E+00    0.0000000000000000E+00    0.0000000000000000E+00
 -0.4287   0.4183    0.5452896016899888E-01    0.0000000000000000E+00    0.0000000000000000E+00    0.4866832280199755E-01   -0.3432791182390597E+00    0.0000000000000000E+00    0.0000000000000000E+00    0.0000000000000000E+00    0.0000000000000000E+00    0.0000000000000000E+00
 -0.4334   0.3934    0.5136735207994855E-01    0.0000000000000000E+00    0.0000000000000000E+00    0.9102327168847187E-01   -0.6555878658368632E+00    0.0000000000000000E+00    0.0000000000000000E+00    0.0000000000000000E+00    0.0000000000000000E+00    0.0000000000000000E+00
 -0.4385   0.3673    0.4703791549844736E-01    0.0000000000000000E+00    0.0000000000000000E+00    0.1236561761202725E+00   -0.1064407333748556E+01    0.0000000000000000E+00    0.0000000000000000E+00    0.0000000000000000E+00    0.0000000000000000E+00    0.0000000000000000E+00
 -0.4437   0.3400    0.4180205796834534E-01    0.0000000000000000E+00    0.0000000000000000E+00    0.1469695779491532E+00   -0.1573088884135676E+01    0.0000000000000000E+00    0.0000000000000000E+00    0.0000000000000000E+00    0.0000000000000000E+00    0.0000000000000000E+00
 -0.4492   0.3117    0.3596864387581180E-01    0.0000000000000000E+00    0.0000000000000000E+00    0.1626127902051233E+00   -0.2185137623208468E+01    0.0000000000000000E+00    0.0000000000000000E+00    0.0000000000000000E+00    0.0000000000000000E+00    0.0000000000000000E+00
 -0.4548   0.2824    0.2987476983581258E-01    0.0000000000000000E+00    0.0000000000000000E+00    0.1728885232274475E+00   -0.2901546866295787E+01    0.0000000000000000E+00    0.0000000000000000E+00    0.0000000000000000E+00    0.0000000000000000E+00    0.0000000000000000E+00
 -0.4606   0.2524    0.2387509475106789E-01    0.0000000000000000E+00    0.0000000000000000E+00    0.1800559178856410E+00   -0.3716515961478965E+01    0.0000000000000000E+00    0.0000000000000000E+00    0.0000000000000000E+00    0.0000000000000000E+00    0.0000000000000000E+00
 -0.4665   0.2216    0.1833598887673644E-01    0.0000000000000000E+00    0.0000000000000000E+00    0.1858598432519847E+00   -0.4613975129620413E+01    0.0000000000000000E+00    0.0000000000000000E+00    0.0000000000000000E+00    0.0000000000000000E+00    0.0000000000000000E+00
 -0.4725   0.1903    0.1362572708013939E-01    0.0000000000000000E+00    0.0000000000000000E+00    0.1914105905537061E+00   -0.5566502298258039E+01    0.0000000000000000E+00    0.0000000000000000E+00    0.0000000000000000E+00    0.0000000000000000E+00    0.0000000000000000E+00
 -0.4786   0.1586    0.1009418448945607E-01    0.0000000000000000E+00    0.0000000000000000E+00    0.1973116746126516E+00   -0.6536854050667355E+01    0.0000000000000000E+00    0.0000000000000000E+00    0.0000000000000000E+00    0.0000000000000000E+00    0.0000000000000000E+00
 -0.4848   0.1266    0.8042454562876021E-02    0.0000000000000000E+00    0.0000000000000000E+00    0.2038588002345683E+00   -0.7481169725249343E+01    0.0000000000000000E+00    0.0000000000000000E+00    0.0000000000000000E+00    0.0000000000000000E+00    0.0000000000000000E+00
 -0.4910   0.0945    0.7688396742618394E-02    0.0000000000000000E+00    0.0000000000000000E+00    0.2111956811263907E+00   -0.8352506311564206E+01    0.0000000000000000E+00    0.0000000000000000E+00    0.0000000000000000E+00    0.0000000000000000E+00    0.0000000000000000E+00
 -0.4972   0.0624    0.9134626927608977E-02    0.0000000000000000E+00    0.0000000000000000E+00    0.2194006701218616E+00   -0.9103722710768128E+01    0.0000000000000000E+00    0.0000000000000000E+00    0.0000000000000000E+00    0.0000000000000000E+00    0.0000000000000000E+00
 -0.5033   0.0304    0.1234304260413162E-01    0.0000000000000000E+00    0.0000000000000000E+00    0.2285235892905454E+00   -0.9689560688488893E+01    0.0000000000000000E+00    0.0000000000000000E+00    0.0000000000000000E+00    0.0000000000000000E+00    0.0000000000000000E+00
 -0.5094  -0.0013    0.1711791633817344E-01    0.0000000000000000E+00    0.0000000000000000E+00    0.2385971806279368E+00   -0.1006852221768524E+02    0.0000000000000000E+00    0.0000000000000000E+00    0.0000000000000000E+00    0.0000000000000000E+00    0.0000000000000000E+00
 -0.5154  -0.0325    0.2310027857999600E-01    0.0000000000000000E+00    0.0000000000000000E+00    0.2496382303665706E+00   -0.1020548709762572E+02    0.0000000000000000E+00    0.0000000000000000E+00    0.0000000000000000E+00    0.0000000000000000E+00    0.0000000000000000E+00
 -0.5214  -0.0633    0.2977877202139665E-01    0.0000000000000000E+00    0.0000000000000000E+00    0.2616452040748371E+00   -0.1007574371546815E+02    0.0000000000000000E+00    0.0000000000000000E+00    0.0000000000000000E+00    0.0000000000000000E+00    0.0000000000000000E+00
 -0.5272  -0.0934    0.3652399605420750E-01    0.0000000000000000E+00    0.0000000000000000E+00    0.2745951727380836E+00   -0.9670309357713572E+01    0.0000000000000000E+00    0.0000000000000000E+00    0.0000000000000000E+00    0.0000000000000000E+00    0.0000000000000000E+00
 -0.5328  -0.1226    0.4265103796724129E-01    0.0000000000000000E+00    0.0000000000000000E+00    0.2884413142102223E+00   -0.9001307073352933E+01    0.0000000000000000E+00    0.0000000000000000E+00    0.0000000000000000E+00    0.0000000000000000E+00    0.0000000000000000E+00
 -0.5382  -0.1510    0.4750695348911964E-01    0.0000000000000000E+00    0.0000000000000000E+00    0.3031116799269818E+00   -0.8105249454996571E+01    0.0000000000000000E+00    0.0000000000000000E+00    0.0000000000000000E+00    0.0000000000000000E+00    0.0000000000000000E+00
 -0.5435  -0.1782    0.5056795347739236E-01    0.0000000000000000E+00    0.0000000000000000E+00    0.3185093854258350E+00   -0.7041946115246291E+01    0.0000000000000000E+00    0.0000000000000000E+00    0.0000000000000000E+00    0.0000000000000000E+00    0.0000000000000000E+00
 -0.5485  -0.2044    0.5152132200557823E-01    0.0000000000000000E+00    0.0000000000000000E+00    0.3345136792244595E+00   -0.5887865450196244E+01    0.0000000000000000E+00    0.0000000000000000E+00    0.0000000000000000E+00    0.0000000000000000E+00    0.0000000000000000E+00
 -0.5533  -0.2292    0.5030678331671806E-01    0.0000000000000000E+00    0.0000000000000000E+00    0.3509806298065344E+00   -0.4724911025256038E+01    0.0000000000000000E+00    0.0000000000000000E+00    0.0000000000000000E+00    0.0000000000000000E+00    0.0000000000000000E+00
 -0.5578  -0.2526    0.4710449925803174E-01    0.0000000000000000E+00    0.0000000000000000E+00    0.3677418951645037E+00   -0.3627688022404540E+01    0.0000000000000000E+00    0.0000000000000000E+00    0.0000000000000000E+00    0.0000000000000000E+00    0.0000000000000000E+00
 -0.5621  -0.2746    0.4227651046154413E-01    0.0000000000000000E+00    0.0000000000000000E+00    0.3846007342075730E+00   -0.2653150015361056E+01    0.0000000000000000E+00    0.0000000000000000E+00    0.0000000000000000E+00    0.0000000000000000E+00    0.0000000000000000E+00
 -0.5660  -0.2950    0.3628455631286671E-01    0.0000000000000000E+00    0.0000000000000000E+00    0.4013262934665258E+00   -0.1835445100648206E+01    0.0000000000000000E+00    0.0000000000000000E+00    0.0000000000000000E+00    0.0000000000000000E+00    0.0000000000000000E+00
 -0.5696  -0.3137    0.2961118558409033E-01    0.0000000000000000E+00    0.0000000000000000E+00    0.4176496658292488E+00   -0.1186533201464782E+01    0.0000000000000000E+00    0.0000000000000000E+00    0.0000000000000000E+00    0.0000000000000000E+00    0.0000000000000000E+00
 -0.5729  -0.3307    0.2270310515306825E-01    0.0000000000000000E+00    0.0000000000000000E+00    0.4332667715406078E+00   -0.7009545105719704E+00    0.0000000000000000E+00    0.0000000000000000E+00    0.0000000000000000E+00    0.0000000000000000E+00    0.0000000000000000E+00
 -0.5758  -0.3458    0.1594251665718251E-01    0.0000000000000000E+00    0.0000000000000000E+00    0.4478520589703057E+00   -0.3621276176768948E+00    0.0000000000000000E+00    0.0000000000000000E+00    0.0000000000000000E+00    0.0000000000000000E+00    0.0000000000000000E+00
 -0.5783  -0.3591    0.9641004352786677E-02    0.0000000000000000E+00    0.0000000000000000E+00    0.4610828697606869E+00   -0.1476391769382855E+00    0.0000000000000000E+00    0.0000000000000000E+00    0.0000000000000000E+00    0.0000000000000000E+00    0.0000000000000000E+00
 -0.5805  -0.3704    0.4044959959675227E-02    0.0000000000000000E+00    0.0000000000000000E+00    0.4726687476091792E+00   -0.3219161214057357E-01    0.0000000000000000E+00    0.0000000000000000E+00    0.0000000000000000E+00    0.0000000000000000E+00    0.0000000000000000E+00
 -0.5823  -0.3797   -0.6592510339005019E-03    0.0000000000000000E+00    0.0000000000000000E+00    0.4823762578232428E+00    0.1189460102844841E-01    0.0000000000000000E+00    0.0000000000000000E+00    0.0000000000000000E+00    0.0000000000000000E+00    0.0000000000000000E+00
 -0.5837  -0.3870   -0.4347285483041683E-02    0.0000000000000000E+00    0.0000000000000000E+00    0.4900407654242021E+00    0.1435251759787592E-01    0.0000000000000000E+00    0.0000000000000000E+00    0.0000000000000000E+00    0.0000000000000000E+00    0.0000000000000000E+00
 -0.5847  -0.3922   -0.6964739551626228E-02    0.0000000000000000E+00    0.0000000000000000E+00    0.4955622060336448E+00    0.4261134460079251E-02    0.0000000000000000E+00    0.0000000000000000E+00    0.0000000000000000E+00    0.0000000000000000E+00    0.0000000000000000E+00
 -0.5853  -0.3954   -0.8526268124396665E-02    0.0000000000000000E+00    0.0000000000000000E+00    0.4988891557347080E+00   -0.1116349297024715E-03    0.0000000000000000E+00    0.0000000000000000E+00    0.0000000000000000E+00    0.0000000000000000E+00    0.0000000000000000E+00
 -0.5855  -0.3964   -0.9048846040478864E-02    0.0000000000000000E+00    0.0000000000000000E+00    0.5000000000000000E+00    0.0000000000000000E+00    0.0000000000000000E+00    0.0000000000000000E+00    0.0000000000000000E+00    0.0000000000000000E+00    0.0000000000000000E+00
 -0.3954   0.5853    0.2530155590078130E-01    0.0000000000000000E+00    0.0000000000000000E+00   -0.5000000000000000E+00   -0.9586746576938073E-04    0.0000000000000000E+00    0.0000000000000000E+00    0.0000000000000000E+00    0.0000000000000000E+00    0.0000000000000000E+00
 -0.3956   0.5843    0.2582288790609093E-01    0.2182494607906662E-06   -0.2183496649263863E-06   -0.4957772234469569E+00   -0.5466596151702602E-03   -0.1486061944106597E-09   -0.3127639193641063E-09   -0.5870763673376106E-12   -0.5723876234098313E-12    0.6375649032157316E-11
 -0.3962   0.5811    0.2736359182565646E-01    0.4115770546756621E-05   -0.9876056144252778E-06   -0.4831289259408327E+00   -0.3563806779524503E-02   -0.2243688660865269E-08   -0.3166975555499857E-09   -0.1083623642206266E-11   -0.8356414518684296E-12    0.2623136647131319E-10
 -0.3972   0.5759    0.2986340274704147E-01    0.1361634323518470E-04   -0.9273231740887883E-06   -0.4621268000919356E+00   -0.1100466607311587E-01   -0.7640428362711337E-08   -0.3203777161099597E-09   -0.1083952372304964E-11   -0.8242772783773056E-12    0.5880659414286837E-10
 -0.3986   0.5686    0.3320700324533817E-01    0.2190363699829714E-04   -0.2803069164540739E-06   -0.4329284181201463E+00   -0.1784735664837121E-01   -0.1219905220104638E-07   -0.3229919139221757E-09   -0.8973603110584705E-12   -0.8262134466169302E-12    0.1058312985857679E-09
 -0.4004   0.5593    0.3719378929559979E-01    0.1954143134175817E-04    0.5085141242383144E-06   -0.3958310646130678E+00   -0.1560515886973363E-01   -0.1097472725511780E-07   -0.3250608085654527E-09   -0.6198305757543210E-12   -0.8058102796137945E-12    0.1673420325920549E-09
 -0.4026   0.5479    0.4154517990665565E-01    0.1771718723415999E-05    0.1099897046365053E-05   -0.3513395948384099E+00    0.1104539648671058E-03   -0.1276043516316679E-08   -0.3266699332912792E-09   -0.3728666680968828E-12   -0.8345121468855687E-12    0.2465852348698672E-09
 -0.4051   0.5347    0.4592669068655537E-01   -0.2896946814835245E-04    0.1302170931343254E-05   -0.3002436690532294E+00    0.2723891057437373E-01    0.1545978224451255E-07   -0.3284449179644100E-09   -0.2530170083864247E-12   -0.8522271430222439E-12    0.3476112939160281E-09
 -0.4081   0.5195    0.4997468209947339E-01   -0.6291548011214175E-04    0.1028201248749681E-05   -0.2437011660036816E+00    0.5685496113623108E-01    0.3404036786061492E-07   -0.3311341277133922E-09   -0.2700357298879297E-12   -0.8369832604770977E-12    0.4759447558289054E-09
 -0.4113   0.5026    0.5332700052941190E-01   -0.8394496531078743E-04    0.2574032225579827E-06   -0.1833185981270626E+00    0.7417742955188623E-01    0.4572624702903286E-07   -0.3357665934568613E-09   -0.3593271513668839E-12   -0.8208758109015668E-12    0.6372296718071269E-09
 -0.4149   0.4839    0.5565823064967546E-01   -0.7125307719560268E-04   -0.9764816439259909E-06   -0.1212020218811551E+00    0.6003214209167805E-01    0.3937752817909027E-07   -0.3434584283645847E-09   -0.3937614123650235E-12   -0.8493119402208649E-12    0.8336240239770198E-09
 -0.4189   0.4635    0.5671683951934090E-01   -0.2314202983905342E-05   -0.2569053064793714E-05   -0.5992810303813714E-01   -0.6347474865728910E-02    0.2847597484975232E-08   -0.3553922104521101E-09   -0.2594729986427069E-12   -0.8246407029455227E-12    0.1057318982367050E-08
 -0.4231   0.4415    0.5635610791461913E-01    0.1430511327686785E-03   -0.4360338217108859E-05   -0.2368908088661548E-02   -0.1436392770575471E+00   -0.7466772993004402E-07   -0.3726340590259891E-09    0.1156297280147101E-12   -0.7860864736919382E-12    0.1284334208428994E-08
 -0.4276   0.4181    0.5454972332867662E-01    0.3791865751259614E-03   -0.6186132199928359E-05    0.4867916251879529E-01   -0.3651733908872214E+00   -0.2008843664226182E-06   -0.3957425290246341E-09    0.7591149930874508E-12   -0.7578382366091319E-12    0.1471704688671416E-08
 -0.4324   0.3932    0.5138823990036938E-01    0.7140090352382865E-03   -0.7949771641444929E-05    0.9103319435784088E-01   -0.6783788262049870E+00   -0.3800138612928412E-06   -0.4242667987763848E-09    0.1680829087025160E-11   -0.7285907988041629E-12    0.1563847218388759E-08
 -0.4374   0.3671    0.4706055742863244E-01    0.1151609965123189E-02   -0.9643631662374991E-05    0.1236643549438753E+00   -0.1087084953243800E+01   -0.6142618489484407E-06   -0.4562883994252420E-09    0.2940495069658766E-11   -0.6367475990920468E-12    0.1510636095380935E-08
 -0.4427   0.3398    0.4182817556972115E-01    0.1695470475122367E-02   -0.1130607052666195E-04    0.1469755477788272E+00   -0.1594448603346903E+01   -0.9054963260783194E-06   -0.4884499471558001E-09    0.4637984440947207E-11   -0.5904512989651778E-12    0.1288817455535884E-08
 -0.4481   0.3115    0.3599967915641310E-01    0.2349087045820906E-02   -0.1294686114063048E-04    0.1626165751569097E+00   -0.2203493057541588E+01   -0.1255645807066881E-05   -0.5166453931337855E-09    0.6936506924404284E-11   -0.5092939958650788E-12    0.9156783178920769E-09
 -0.4538   0.2822    0.2991137327208827E-01    0.3113161816745675E-02   -0.1450232389435660E-04    0.1728905409510152E+00   -0.2914538191269594E+01   -0.1665141440688110E-05   -0.5368538877337237E-09    0.9981189486030217E-11   -0.4070077608275824E-12    0.4430629352986104E-09
 -0.4595   0.2522    0.2391680163980077E-01    0.3981106975745619E-02   -0.1583743858235172E-04    0.1800567404677797E+00   -0.3721074652284341E+01   -0.2130531114084003E-05   -0.5459293399290299E-09    0.1384251394065394E-10   -0.2817329702864413E-12   -0.6287767962548374E-10
 -0.4655   0.2214    0.1838114169639245E-01    0.4935423666388592E-02   -0.1678322134413387E-04    0.1858599758093539E+00   -0.4606481249202617E+01   -0.2642496209066669E-05   -0.5416414400327696E-09    0.1844156424790633E-10   -0.1987437991957108E-12   -0.5447129297641608E-09
 -0.4715   0.1901    0.1367167550890891E-01    0.5946628084350627E-02   -0.1718181850881295E-04    0.1914103696862144E+00   -0.5543097600036474E+01   -0.3185280699022048E-05   -0.5225194651958809E-09    0.2347516625533785E-10   -0.5680178549738457E-13   -0.9661451777498442E-09
 -0.4776   0.1584    0.1013758619841688E-01    0.6974940439054941E-02   -0.1691826366806030E-04    0.1973112781400746E+00   -0.6493850188117409E+01   -0.3737574410446681E-05   -0.4877047862783535E-09    0.2852798552943625E-10    0.4636568906590810E-13   -0.1311956245465123E-08
 -0.4837   0.1264    0.8079607220945164E-02    0.7973724169482371E-02   -0.1592947639548950E-04    0.2038583034969333E+00   -0.7415473551824676E+01   -0.4274357098678387E-05   -0.4371235144684515E-09    0.3307781826222822E-10    0.1370709101777834E-12   -0.1581316883859929E-08
 -0.4899   0.0943    0.7715456057095700E-02    0.8893248133590295E-02   -0.1419301828924116E-04    0.2111951085809542E+00   -0.8262001289966715E+01   -0.4768918010566001E-05   -0.3716323290769985E-09    0.3670178050363404E-10    0.2162992007725961E-12   -0.1780209975960068E-08
 -0.4961   0.0622    0.9147748493062607E-02    0.9683741739784622E-02   -0.1171004397373538E-04    0.2194000259845231E+00   -0.8987593997976630E+01   -0.5194488612036018E-05   -0.2929698879328146E-09    0.3911471146977874E-10    0.2345276750581604E-12   -0.1917207816982958E-08
 -0.5023   0.0302    0.1233843448418852E-01    0.1029759307165725E-01   -0.8493698280655716E-05    0.2285228715885886E+00   -0.9548558329370540E+01   -0.5525439443032268E-05   -0.2037757150519237E-09    0.4018774202307895E-10    0.2375669105880718E-12   -0.2000214582506543E-08
 -0.5084  -0.0015    0.1709194664863265E-01    0.1069133068484384E-01   -0.4575794669966467E-05    0.2385963867128945E+00   -0.9905181034546224E+01   -0.5738324334532756E-05   -0.1073767949555382E-09    0.3996047936993818E-10    0.1819898398647268E-12   -0.2036771605540277E-08
 -0.5144  -0.0327    0.2304966736698267E-01    0.1082838004451321E-01   -0.2889492761623292E-07    0.2496373589724035E+00   -0.1002425010990888E+02   -0.5813392567021189E-05   -0.7252842118934174E-11    0.3857936192730449E-10    0.9522439260722937E-13   -0.2032814786293025E-08
 -0.5203  -0.0635    0.2970098032051280E-01    0.1068328915363295E-01    0.4998403272319333E-05    0.2616442560207329E+00   -0.9882931871341290E+01   -0.5736830895066092E-05    0.9309712896421463E-10    0.3625322264610986E-10    0.2338407245616736E-13   -0.1993693305932243E-08
 -0.5261  -0.0936    0.3641772532050994E-01    0.1024727585337159E-01    0.1025405932768240E-04    0.2745941508453763E+00   -0.9473798217209858E+01   -0.5503802935918178E-05    0.1904927153517644E-09    0.3325861808178843E-10   -0.1417060913055934E-12   -0.1924448392309763E-08
 -0.5317  -0.1228    0.4251678892812091E-01    0.9533792267842124E-02    0.1537526243848906E-04    0.2884402224890770E+00   -0.8809863920373695E+01   -0.5121409570607603E-05    0.2823372126370405E-09    0.2985306446490199E-10   -0.2450400993225799E-12   -0.1829479722229022E-08
 -0.5372  -0.1512    0.4734737926209005E-01    0.8581861264719871E-02    0.1992522219678480E-04    0.3031105221182034E+00   -0.7927513815328200E+01   -0.4610568414309972E-05    0.3667225481618352E-09    0.2628336437382472E-10   -0.4073269499471621E-12   -0.1713510165354815E-08
 -0.5425  -0.1784    0.5038787699449433E-01    0.7454822144479380E-02    0.2346664558766087E-04    0.3185081632975879E+00   -0.6885277256676774E+01   -0.4005284975607366E-05    0.4423843930068116E-09    0.2274758159614976E-10   -0.5075384557073903E-12   -0.1581021157742724E-08
 -0.5475  -0.2046    0.5132722963753650E-01    0.6233302030084961E-02    0.2566342659006391E-04    0.3345123914595838E+00   -0.5757305389627701E+01   -0.3348961251885951E-05    0.5087517837565336E-09    0.1940941851685807E-10   -0.6199207813750718E-12   -0.1436278641159250E-08
 -0.5523  -0.2294    0.5010595246016950E-01    0.5003443000523047E-02    0.2636089867071743E-04    0.3509792726154449E+00   -0.4622635402118350E+01   -0.2687951862956628E-05    0.5657583707074920E-09    0.1637073809845901E-10   -0.6864647739135421E-12   -0.1284174882751343E-08
 -0.5568  -0.2528    0.4690391697598889E-01    0.3843602106045636E-02    0.2562325280092678E-04    0.3677404656209601E+00   -0.3553036393302661E+01   -0.2064501666353755E-05    0.6137073280121363E-09    0.1366362578636426E-10   -0.7119305145408816E-12   -0.1128040834352806E-08
 -0.5610  -0.2748    0.4208200673817927E-01    0.2813561955551793E-02    0.2369561105711201E-04    0.3845992364595219E+00   -0.2603254337781470E+01   -0.1510782376570740E-05    0.6531352958472070E-09    0.1127489768215639E-10   -0.7330802631599909E-12   -0.9730810237446041E-09
 -0.5649  -0.2952    0.3610028385632156E-01    0.1949174214972896E-02    0.2092788519005853E-04    0.4013247464609404E+00   -0.1806101973245003E+01   -0.1046156941997334E-05    0.6846973057972328E-09    0.9163211855955922E-11   -0.7490119635633619E-12   -0.8221696431304215E-09
 -0.5685  -0.3139    0.2943964059631740E-01    0.1263011010777930E-02    0.1767002160956800E-04    0.4176481095313455E+00   -0.1173127771866092E+01   -0.6773398251449777E-06    0.7091047402041362E-09    0.7283194880525201E-11   -0.7442796379208971E-12   -0.6787132748181657E-09
 -0.5718  -0.3309    0.2254544000305409E-01    0.7493420389578745E-03    0.1420687071455510E-04    0.4332652678331439E+00   -0.6990612792736671E+00   -0.4013116179944405E-06    0.7271958833710013E-09    0.5613943337978711E-11   -0.7410044799982529E-12   -0.5446137343184665E-09
 -0.5747  -0.3460    0.1579907913860769E-01    0.3906861324093258E-03    0.1071562133877569E-04    0.4478506844310695E+00   -0.3678596262307757E+00   -0.2085838995779277E-06    0.7398573351191651E-09    0.4159200761577608E-11   -0.7322337181037142E-12   -0.4221017771421920E-09
 -0.5773  -0.3593    0.9511647423419395E-02    0.1633182489360963E-03    0.7308109838364232E-05    0.4610817004538815E+00   -0.1575705004428503E+00   -0.8651347879137337E-07    0.7481665773023671E-09    0.2952221800356369E-11   -0.7390615897051589E-12   -0.3134276085198229E-09
 -0.5794  -0.3706    0.3929056158893258E-02    0.4031506691897180E-04    0.4087214818954989E-05    0.4726678398492884E+00   -0.4325043225040630E-01   -0.2052845790746181E-07    0.7532286313768899E-09    0.2043414049079928E-11   -0.7336180274375437E-12   -0.2193012967402486E-09
 -0.5812  -0.3799   -0.7634757512314346E-03   -0.7823636014429183E-05    0.1310260740217585E-05    0.4823756317943914E+00    0.2630759576472942E-02    0.5013867296601807E-08    0.7563750081991671E-09    0.1454582981841313E-11   -0.7396245074731134E-12   -0.1412657395574723E-09
 -0.5826  -0.3872   -0.4443901562274567E-02   -0.1267776655877303E-04   -0.6031463382092707E-06    0.4900403987300079E+00    0.9198001548896455E-02    0.7312072307292871E-08    0.7587285404987709E-09    0.1154309287043631E-11   -0.7440090210586447E-12   -0.7956354845795044E-10
 -0.5837  -0.3924   -0.7061073821992793E-02   -0.4214913497413019E-05   -0.1091606235924135E-05    0.4955620405826404E+00    0.3706164147194180E-02    0.2259278643183545E-08    0.7617644254102884E-09    0.9981924141422294E-12   -0.7674178133243448E-12   -0.3565101751139277E-10
 -0.5843  -0.3956   -0.8624908637869520E-02   -0.1324817188481472E-06   -0.1327173050858395E-06    0.4988891142439369E+00    0.5720095291597783E-03    0.1141524142820253E-09    0.7652697912212750E-09    0.5395060483429082E-12   -0.5326511801073686E-12   -0.9131792219098378E-11
 -0.5845  -0.3967   -0.9147599596993090E-02    0.0000000000000000E+00    0.0000000000000000E+00    0.5000000000000000E+00   -0.1110898621066075E-03    0.0000000000000000E+00    0.0000000000000000E+00    0.0000000000000000E+00    0.0000000000000000E+00    0.0000000000000000E+00
 -0.3922   0.5847    0.2560477730416405E-01    0.0000000000000000E+00    0.0000000000000000E+00   -0.5000000000000000E+00   -0.4251215754687600E-02    0.0000000000000000E+00    0.0000000000000000E+00    0.0000000000000000E+00    0.0000000000000000E+00    0.0000000000000000E+00
 -0.3924   0.5837    0.2612417623526581E-01    0.9871221889893771E-06   -0.4115260453566539E-05   -0.4957757675894279E+00   -0.3563090553863245E-02   -0.2243423779774784E-08   -0.3164974326456266E-09   -0.8207522931690664E-12   -0.1104900296689665E-11    0.6598172637602151E-11
 -0.3931   0.5805    0.2766104029623932E-01    0.1130879485181415E-04   -0.1131107455942430E-04   -0.4831231011563950E+00   -0.2348460213837076E-02   -0.2889660361410135E-07   -0.3180168958033525E-09   -0.2493972910133646E-11   -0.2672206639992014E-11    0.2605843102063132E-10
 -0.3941   0.5753    0.3015044926669874E-01    0.3651604131429977E-04   -0.1155021496600929E-04   -0.4621136948638664E+00   -0.3057196240080304E-02   -0.9428422369799385E-07   -0.3205527510097284E-09   -0.3339137126523450E-11   -0.3272722804564809E-11    0.5892607669172323E-10
 -0.3955   0.5680    0.3347154330254751E-01    0.5905506118320201E-04   -0.3431603349238795E-05   -0.4329051870937596E+00   -0.4836144686449237E-02   -0.1521453355705375E-06   -0.3230022844243757E-09   -0.3145908880619608E-11   -0.3470404085631484E-11    0.1055583346426525E-09
 -0.3973   0.5587    0.3742769692729551E-01    0.4867377418932825E-04    0.7455938583980533E-05   -0.3957949976276258E+00   -0.2277660087567077E-02   -0.1309981427490640E-06   -0.3250260984834219E-09   -0.2452977057587624E-11   -0.3472983402599827E-11    0.1670149366028717E-09
 -0.3994   0.5473    0.4174549860666551E-01   -0.1245575400887438E-04    0.1582853899965208E-04   -0.3512880885072667E+00    0.8649897406218054E-02    0.8928796966291090E-08   -0.3267490939276585E-09   -0.1761509341169365E-11   -0.3401580666445581E-11    0.2464274444224923E-09
 -0.4020   0.5341    0.4609411009264814E-01   -0.1161911806100524E-03    0.1850159108778070E-04   -0.3001741892451057E+00    0.2669184173513240E-01    0.2486479300505270E-06   -0.3286591745282896E-09   -0.1488765274254567E-11   -0.3304375870150089E-11    0.3472646892266340E-09
 -0.4049   0.5189    0.5011216516307340E-01   -0.2262761140950148E-03    0.1397457261426336E-04   -0.2436114257722094E+00    0.4424400956226469E-01    0.5081716911551084E-06   -0.3314771920490123E-09   -0.1702958954408196E-11   -0.3239910510016708E-11    0.4756154428631199E-09