 title="result"
 variables="x","y","P","u","v","t","omega","psi","RES1","RES2","RES3","RES4"
zone,j= 49,i= 49,f=point
 -0.2639   0.6560    0.2504222778037234E-01    0.0000000000000000E+00    0.0000000000000000E+00   -0.5000000000000000E+00    0.0000000000000000E+00    0.0000000000000000E+00    0.0000000000000000E+00    0.0000000000000000E+00    0.0000000000000000E+00    0.0000000000000000E+00
 -0.2643   0.6550    0.2553180328885062E-01    0.0000000000000000E+00    0.0000000000000000E+00   -0.4951814693890165E+00    0.3030757020413992E-03    0.0000000000000000E+00    0.0000000000000000E+00    0.0000000000000000E+00    0.0000000000000000E+00    0.0000000000000000E+00
 -0.2656   0.6521    0.2695286964200569E-01    0.0000000000000000E+00    0.0000000000000000E+00   -0.4807492798651541E+00   -0.4462881719135289E-02    0.0000000000000000E+00    0.0000000000000000E+00    0.0000000000000000E+00    0.0000000000000000E+00    0.0000000000000000E+00
 -0.2677   0.6472    0.2922918501254337E-01    0.0000000000000000E+00    0.0000000000000000E+00   -0.4567905610883991E+00   -0.3523201014516370E-01    0.0000000000000000E+00    0.0000000000000000E+00    0.0000000000000000E+00    0.0000000000000000E+00    0.0000000000000000E+00
 -0.2706   0.6403    0.3229997043352055E-01    0.0000000000000000E+00    0.0000000000000000E+00   -0.4235100963702043E+00   -0.1051546811578066E+00    0.0000000000000000E+00    0.0000000000000000E+00    0.0000000000000000E+00    0.0000000000000000E+00    0.0000000000000000E+00
 -0.2743   0.6316    0.3605910480839033E-01    0.0000000000000000E+00    0.0000000000000000E+00   -0.3813287142177265E+00   -0.2090087548253096E+00    0.0000000000000000E+00    0.0000000000000000E+00    0.0000000000000000E+00    0.0000000000000000E+00    0.0000000000000000E+00
 -0.2788   0.6210    0.4031342397237025E-01    0.0000000000000000E+00    0.0000000000000000E+00   -0.3310245363825510E+00   -0.3289748372632548E+00    0.0000000000000000E+00    0.0000000000000000E+00    0.0000000000000000E+00    0.0000000000000000E+00    0.0000000000000000E+00
 -0.2841   0.6086    0.4477383962979448E-01    0.0000000000000000E+00    0.0000000000000000E+00   -0.2738881168465604E+00   -0.4415956861766282E+00    0.0000000000000000E+00    0.0000000000000000E+00    0.0000000000000000E+00    0.0000000000000000E+00    0.0000000000000000E+00
 -0.2902   0.5944    0.4906520811118671E-01    0.0000000000000000E+00    0.0000000000000000E+00   -0.2118305255088256E+00   -0.5259282014774985E+00    0.0000000000000000E+00    0.0000000000000000E+00    0.0000000000000000E+00    0.0000000000000000E+00    0.0000000000000000E+00
 -0.2969   0.5785    0.5276303899005323E-01    0.0000000000000000E+00    0.0000000000000000E+00   -0.1473707477498575E+00   -0.5718713494999917E+00    0.0000000000000000E+00    0.0000000000000000E+00    0.0000000000000000E+00    0.0000000000000000E+00    0.0000000000000000E+00
 -0.3044   0.5610    0.5545281779904387E-01    0.0000000000000000E+00    0.0000000000000000E+00   -0.8345600903353953E-01   -0.5868818695822388E+00    0.0000000000000000E+00    0.0000000000000000E+00    0.0000000000000000E+00    0.0000000000000000E+00    0.0000000000000000E+00
 -0.3126   0.5419    0.5680566931168978E-01    0.0000000000000000E+00    0.0000000000000000E+00   -0.2313053286097386E-01   -0.5971322996765289E+00    0.0000000000000000E+00    0.0000000000000000E+00    0.0000000000000000E+00    0.0000000000000000E+00    0.0000000000000000E+00
 -0.3213   0.5213    0.5664326914899925E-01    0.0000000000000000E+00    0.0000000000000000E+00    0.3087340853955248E-01   -0.6404588469229188E+00    0.0000000000000000E+00    0.0000000000000000E+00    0.0000000000000000E+00    0.0000000000000000E+00    0.0000000000000000E+00
 -0.3307   0.4993    0.5496335870467391E-01    0.0000000000000000E+00    0.0000000000000000E+00    0.7652969780675581E-01   -0.7537599545893012E+00    0.0000000000000000E+00    0.0000000000000000E+00    0.0000000000000000E+00    0.0000000000000000E+00    0.0000000000000000E+00
 -0.3406   0.4761    0.5191325970178590E-01    0.0000000000000000E+00    0.0000000000000000E+00    0.1128181191281788E+00   -0.9625673760913089E+00    0.0000000000000000E+00    0.0000000000000000E+00    0.0000000000000000E+00    0.0000000000000000E+00    0.0000000000000000E+00
 -0.3510   0.4516    0.4773344693081172E-01    0.0000000000000000E+00    0.0000000000000000E+00    0.1398585674444607E+00   -0.1279022838926662E+01    0.0000000000000000E+00    0.0000000000000000E+00    0.0000000000000000E+00    0.0000000000000000E+00    0.0000000000000000E+00
 -0.3619   0.4260    0.4270566762950424E-01    0.0000000000000000E+00    0.0000000000000000E+00    0.1588149059109544E+00   -0.1706764001550882E+01    0.0000000000000000E+00    0.0000000000000000E+00    0.0000000000000000E+00    0.0000000000000000E+00    0.0000000000000000E+00
 -0.3732   0.3995    0.3712580980735729E-01    0.0000000000000000E+00    0.0000000000000000E+00    0.1715553251344467E+00   -0.2246035884793728E+01    0.0000000000000000E+00    0.0000000000000000E+00    0.0000000000000000E+00    0.0000000000000000E+00    0.0000000000000000E+00
 -0.3849   0.3721    0.3129731853658712E-01    0.0000000000000000E+00    0.0000000000000000E+00    0.1801651138728914E+00   -0.2894600184222261E+01    0.0000000000000000E+00    0.0000000000000000E+00    0.0000000000000000E+00    0.0000000000000000E+00    0.0000000000000000E+00
 -0.3969   0.3439    0.2553368684773950E-01    0.0000000000000000E+00    0.0000000000000000E+00    0.1864960136941562E+00   -0.3645334184289170E+01    0.0000000000000000E+00    0.0000000000000000E+00    0.0000000000000000E+00    0.0000000000000000E+00    0.0000000000000000E+00
 -0.4092   0.3151    0.2016036645263682E-01    0.0000000000000000E+00    0.0000000000000000E+00    0.1919121989069161E+00   -0.4483526328199369E+01    0.0000000000000000E+00    0.0000000000000000E+00    0.0000000000000000E+00    0.0000000000000000E+00    0.0000000000000000E+00
 -0.4217   0.2858    0.1551035802514891E-01    0.0000000000000000E+00    0.0000000000000000E+00    0.1972675744240499E+00   -0.5385840032298039E+01    0.0000000000000000E+00    0.0000000000000000E+00    0.0000000000000000E+00    0.0000000000000000E+00    0.0000000000000000E+00
 -0.4344   0.2561    0.1190981227552199E-01    0.0000000000000000E+00    0.0000000000000000E+00    0.2030295696948754E+00   -0.6321231676412665E+01    0.0000000000000000E+00    0.0000000000000000E+00    0.0000000000000000E+00    0.0000000000000000E+00    0.0000000000000000E+00
 -0.4471   0.2261    0.9654983142768579E-02    0.0000000000000000E+00    0.0000000000000000E+00    0.2094342339099967E+00   -0.7253151210244372E+01    0.0000000000000000E+00    0.0000000000000000E+00    0.0000000000000000E+00    0.0000000000000000E+00    0.0000000000000000E+00
 -0.4600   0.1961    0.8984879416621270E-02    0.0000000000000000E+00    0.0000000000000000E+00    0.2166026926156678E+00   -0.8141951364546003E+01    0.0000000000000000E+00    0.0000000000000000E+00    0.0000000000000000E+00    0.0000000000000000E+00    0.0000000000000000E+00
 -0.4728   0.1660    0.1005454642725598E-01    0.0000000000000000E+00    0.0000000000000000E+00    0.2246056005849027E+00   -0.8946671077917916E+01    0.0000000000000000E+00    0.0000000000000000E+00    0.0000000000000000E+00    0.0000000000000000E+00    0.0000000000000000E+00
 -0.4855   0.1360    0.1291106813255600E-01    0.0000000000000000E+00    0.0000000000000000E+00    0.2334907519749526E+00   -0.9625942639085988E+01    0.0000000000000000E+00    0.0000000000000000E+00    0.0000000000000000E+00    0.0000000000000000E+00    0.0000000000000000E+00
 -0.4982   0.1063    0.1747268356250311E-01    0.0000000000000000E+00    0.0000000000000000E+00    0.2432916067991244E+00   -0.1013853656657730E+02    0.0000000000000000E+00    0.0000000000000000E+00    0.0000000000000000E+00    0.0000000000000000E+00    0.0000000000000000E+00
 -0.5107   0.0770    0.2351158265293569E-01    0.0000000000000000E+00    0.0000000000000000E+00    0.2540277241057273E+00   -0.1044452318796987E+02    0.0000000000000000E+00    0.0000000000000000E+00    0.0000000000000000E+00    0.0000000000000000E+00    0.0000000000000000E+00
 -0.5230   0.0482    0.3064447102153425E-01    0.0000000000000000E+00    0.0000000000000000E+00    0.2657021849911894E+00   -0.1050812284057060E+02    0.0000000000000000E+00    0.0000000000000000E+00    0.0000000000000000E+00    0.0000000000000000E+00    0.0000000000000000E+00
 -0.5350   0.0200    0.3833904632376220E-01    0.0000000000000000E+00    0.0000000000000000E+00    0.2782981549082059E+00   -0.1030279209731559E+02    0.0000000000000000E+00    0.0000000000000000E+00    0.0000000000000000E+00    0.0000000000000000E+00    0.0000000000000000E+00
 -0.5467  -0.0074    0.4594685063405966E-01    0.0000000000000000E+00    0.0000000000000000E+00    0.2917757067402567E+00   -0.9818115349807396E+01    0.0000000000000000E+00    0.0000000000000000E+00    0.0000000000000000E+00    0.0000000000000000E+00    0.0000000000000000E+00
 -0.5580  -0.0339    0.5276928169281769E-01    0.0000000000000000E+00    0.0000000000000000E+00    0.3060696932587618E+00   -0.9066715714169339E+01    0.0000000000000000E+00    0.0000000000000000E+00    0.0000000000000000E+00    0.0000000000000000E+00    0.0000000000000000E+00
 -0.5689  -0.0595    0.5815280946542370E-01    0.0000000000000000E+00    0.0000000000000000E+00    0.3210891380226837E+00   -0.8088393320653847E+01    0.0000000000000000E+00    0.0000000000000000E+00    0.0000000000000000E+00    0.0000000000000000E+00    0.0000000000000000E+00
 -0.5793  -0.0839    0.6159417772036885E-01    0.0000000000000000E+00    0.0000000000000000E+00    0.3367180311728757E+00   -0.6948681716678804E+01    0.0000000000000000E+00    0.0000000000000000E+00    0.0000000000000000E+00    0.0000000000000000E+00    0.0000000000000000E+00
 -0.5892  -0.1072    0.6282514843905296E-01    0.0000000000000000E+00    0.0000000000000000E+00    0.3528166148823192E+00   -0.5730688831223891E+01    0.0000000000000000E+00    0.0000000000000000E+00    0.0000000000000000E+00    0.0000000000000000E+00    0.0000000000000000E+00
 -0.5986  -0.1292    0.6184818073867863E-01    0.0000000000000000E+00    0.0000000000000000E+00    0.3692215808111043E+00   -0.4521808538898695E+01    0.0000000000000000E+00    0.0000000000000000E+00    0.0000000000000000E+00    0.0000000000000000E+00    0.0000000000000000E+00
 -0.6074  -0.1498    0.5891156377163431E-01    0.0000000000000000E+00    0.0000000000000000E+00    0.3857436866822780E+00   -0.3399398081404527E+01    0.0000000000000000E+00    0.0000000000000000E+00    0.0000000000000000E+00    0.0000000000000000E+00    0.0000000000000000E+00
 -0.6155  -0.1689    0.5443643347168968E-01    0.0000000000000000E+00    0.0000000000000000E+00    0.4021626705259559E+00   -0.2419973298916476E+01    0.0000000000000000E+00    0.0000000000000000E+00    0.0000000000000000E+00    0.0000000000000000E+00    0.0000000000000000E+00
 -0.6230  -0.1864    0.4892456176802885E-01    0.0000000000000000E+00    0.0000000000000000E+00    0.4182219111580558E+00   -0.1614831812208084E+01    0.0000000000000000E+00    0.0000000000000000E+00    0.0000000000000000E+00    0.0000000000000000E+00    0.0000000000000000E+00
 -0.6297  -0.2023    0.4287699502807830E-01    0.0000000000000000E+00    0.0000000000000000E+00    0.4336278360933933E+00   -0.9920014476646427E+00    0.0000000000000000E+00    0.0000000000000000E+00    0.0000000000000000E+00    0.0000000000000000E+00    0.0000000000000000E+00
 -0.6358  -0.2165    0.3674138090243160E-01    0.0000000000000000E+00    0.0000000000000000E+00    0.4480595148822455E+00   -0.5421946359648223E+00    0.0000000000000000E+00    0.0000000000000000E+00    0.0000000000000000E+00    0.0000000000000000E+00    0.0000000000000000E+00
 -0.6411  -0.2289    0.3089027502307657E-01    0.0000000000000000E+00    0.0000000000000000E+00    0.4611906112088302E+00   -0.2453267313074932E+00    0.0000000000000000E+00    0.0000000000000000E+00    0.0000000000000000E+00    0.0000000000000000E+00    0.0000000000000000E+00
 -0.6456  -0.2395    0.2562026378578590E-01    0.0000000000000000E+00    0.0000000000000000E+00    0.4727196421311617E+00   -0.7510856348517000E-01    0.0000000000000000E+00    0.0000000000000000E+00    0.0000000000000000E+00    0.0000000000000000E+00    0.0000000000000000E+00
 -0.6493  -0.2482    0.2115712453999578E-01    0.0000000000000000E+00    0.0000000000000000E+00    0.4823987820719062E+00   -0.4740481922508084E-03    0.0000000000000000E+00    0.0000000000000000E+00    0.0000000000000000E+00    0.0000000000000000E+00    0.0000000000000000E+00
 -0.6522  -0.2551    0.1765383187981421E-01    0.0000000000000000E+00    0.0000000000000000E+00    0.4900504244896363E+00    0.1396423221725845E-01    0.0000000000000000E+00    0.0000000000000000E+00    0.0000000000000000E+00    0.0000000000000000E+00    0.0000000000000000E+00
 -0.6543  -0.2600    0.1517983773561269E-01    0.0000000000000000E+00    0.0000000000000000E+00    0.4955659712370243E+00    0.5281713592311893E-02    0.0000000000000000E+00    0.0000000000000000E+00    0.0000000000000000E+00    0.0000000000000000E+00    0.0000000000000000E+00
 -0.6556  -0.2629    0.1371462488242627E-01    0.0000000000000000E+00    0.0000000000000000E+00    0.4988900664007109E+00   -0.6172668963194213E-04    0.0000000000000000E+00    0.0000000000000000E+00    0.0000000000000000E+00    0.0000000000000000E+00    0.0000000000000000E+00
 -0.6560  -0.2639    0.1322608194046063E-01    0.0000000000000000E+00    0.0000000000000000E+00    0.5000000000000000E+00    0.0000000000000000E+00    0.0000000000000000E+00    0.0000000000000000E+00    0.0000000000000000E+00    0.0000000000000000E+00    0.0000000000000000E+00
 -0.2629   0.6556    0.2525256547262808E-01    0.0000000000000000E+00    0.0000000000000000E+00   -0.5000000000000000E+00    0.3032331589703977E-03    0.0000000000000000E+00    0.0000000000000000E+00    0.0000000000000000E+00    0.0000000000000000E+00    0.0000000000000000E+00
 -0.2633   0.6546    0.2574113113248039E-01    0.4817868992209764E-07   -0.4807344952613053E-07   -0.4951813310572138E+00   -0.6337204536503607E-03   -0.2079683307289033E-10   -0.1196370356135266E-08   -0.4180668398273690E-12   -0.4190155167282938E-12    0.1038360749380102E-10
 -0.2646   0.6517    0.2716361730868198E-01    0.5997360785366450E-05   -0.1918934005660816E-05   -0.4807487194617220E+00   -0.7141556402611891E-02   -0.2970238246947836E-08   -0.1199429623330306E-08   -0.8254907174487514E-12   -0.6091759041648714E-12    0.4239100693734232E-10
 -0.2667   0.6468    0.2944195793093497E-01    0.3754067034325796E-04   -0.4345214637938696E-05   -0.4567892548979809E+00   -0.3510133428678698E-01   -0.2017383390058466E-07   -0.1202984266021612E-08   -0.7360381835269658E-12   -0.5943474878922217E-12    0.9465702006938859E-10
 -0.2696   0.6399    0.3250656353146650E-01    0.1090753732276814E-03   -0.5841240376171660E-05   -0.4235076544271638E+00   -0.9879793393181195E-01   -0.5898399237631710E-07   -0.1206539443007748E-08   -0.1378966385523483E-12   -0.6597500323834993E-12    0.1668988384995185E-09
 -0.2733   0.6312    0.3624955273916840E-01    0.2165942037348654E-03   -0.6190965547080104E-05   -0.3813247121601188E+00   -0.1957445564427134E+00   -0.1172113687864008E-06   -0.1209773961563521E-08    0.1116710890425310E-11   -0.6336042801535768E-12    0.2590663725210440E-09
 -0.2778   0.6206    0.4047922166054933E-01    0.3420510375530398E-03   -0.5429012901887503E-05   -0.3310186025349605E+00   -0.3101438469363353E+00   -0.1848705523188073E-06   -0.1211728314909344E-08    0.2931356546387320E-11   -0.6806707975037796E-12    0.3664025194360931E-09
 -0.2831   0.6082    0.4490861126810489E-01    0.4610790900270042E-03   -0.4000975802622505E-05   -0.2738800493525593E+00   -0.4198754798831997E+00   -0.2488705076091751E-06   -0.1211803597571393E-08    0.5046768558614190E-11   -0.6647772610168801E-12    0.4828753161212340E-09
 -0.2892   0.5940    0.4916573095196801E-01    0.5516448338252609E-03   -0.2317613985018168E-05   -0.2118203959889144E+00   -0.5047422200657284E+00   -0.2972878212301282E-06   -0.1209679608218939E-08    0.7117875733264611E-11   -0.6740216024203605E-12    0.5969612443257333E-09
 -0.2960   0.5781    0.5282964829405114E-01    0.6029538506159615E-03   -0.9305835104715610E-06   -0.1473589415973728E+00   -0.5546560868751139E+00   -0.3243836431975613E-06   -0.1205474247766708E-08    0.8800932205232925E-11   -0.6249115808154571E-12    0.6925795908996335E-09
 -0.3034   0.5605    0.5548938191599267E-01    0.6225836196534336E-03   -0.2692473058587212E-06   -0.8344317706913848E-01   -0.5763262801949867E+00   -0.3342544938588540E-06   -0.1199442113230913E-08    0.9834352082682685E-11   -0.5743318147455323E-12    0.7490573439294934E-09
 -0.3116   0.5415    0.5681855885736125E-01    0.6377962777176197E-03   -0.6073655940259391E-06   -0.2311747637851003E-01   -0.5944972990433975E+00   -0.3416489162556608E-06   -0.1191717273908016E-08    0.1008962705051353E-10   -0.5317859867737251E-12    0.7430233234240191E-09
 -0.3203   0.5209    0.5663970232616022E-01    0.6882365258964070E-03   -0.1860461595533263E-05    0.3088586659524935E-01   -0.6454019371249099E+00   -0.3679248897146422E-06   -0.1181873722153060E-08    0.9591173341649828E-11   -0.4689807570068538E-12    0.6499205340571024E-09
 -0.3297   0.4989    0.5494980427340389E-01    0.8127642894596126E-03   -0.3720841851112662E-05    0.7654081960391912E-01   -0.7647349978216714E+00   -0.4340070898848931E-06   -0.1168604295796738E-08    0.8513457300241001E-11   -0.4416744747715029E-12    0.4479104170895809E-09
 -0.3396   0.4756    0.5189474039142512E-01    0.1038457394301669E-02   -0.5793241470695897E-05    0.1128273407293304E+00   -0.9775588518737934E+00   -0.5544292219892708E-06   -0.1149406752068427E-08    0.7064994422822934E-11   -0.4034897416183014E-12    0.1237361116346314E-09
 -0.3501   0.4512    0.4771369962745095E-01    0.1378336651585248E-02   -0.7840873083296494E-05    0.1398655822361793E+00   -0.1296058536455676E+01   -0.7361600121984367E-06   -0.1121038487733594E-08    0.5408049008615023E-11   -0.2823227762682734E-12   -0.3188572600398842E-09
 -0.3609   0.4256    0.4268753694679713E-01    0.1836350972583815E-02   -0.9772309041529884E-05    0.1588197201476535E+00   -0.1723977797482870E+01   -0.9813038219645791E-06   -0.1080247280516033E-08    0.3598676912019982E-11   -0.2244315844279754E-12   -0.8533329251547705E-09
 -0.3723   0.3991    0.3711131792408485E-01    0.2412684235260543E-02   -0.1159046988264303E-04    0.1715582370265527E+00   -0.2261414405077324E+01   -0.1289970686002188E-05   -0.1024896566920175E-08    0.1618087608346030E-11   -0.1271691085769078E-12   -0.1431482474223422E-08
 -0.3839   0.3717    0.3128746113627995E-01    0.3104725662917780E-02   -0.1325731280919930E-04    0.1801666000035821E+00   -0.2905728331885050E+01   -0.1660805783939779E-05   -0.9545667659094370E-09   -0.5741483677379478E-12   -0.1965788642976918E-13   -0.1995644640859218E-08
 -0.3960   0.3435    0.2552826600727144E-01    0.3904581051126884E-02   -0.1469630989401582E-04    0.1864965721644283E+00   -0.3649293542095853E+01   -0.2089625318874443E-05   -0.8708289957193305E-09   -0.3050688174299765E-11    0.8745781876484671E-13   -0.2494510207336903E-08
 -0.4082   0.3147    0.2015803338116094E-01    0.4796270287455032E-02   -0.1578425964289773E-04    0.1919122275492748E+00   -0.4476965498278227E+01   -0.2567924741665793E-05   -0.7769327889373123E-09   -0.5910102268691375E-11    0.1895428258791299E-12   -0.2895589574700413E-08
 -0.4207   0.2854    0.1550884247766972E-01    0.5754687034220642E-02   -0.1641279120054896E-04    0.1972673274935977E+00   -0.5365178084349339E+01   -0.3082278078084528E-05   -0.6772420818590419E-09   -0.9280222423857509E-11    0.2881306304658438E-12   -0.3188344870671406E-08
 -0.4334   0.2557    0.1190621472529273E-01    0.6746625908673897E-02   -0.1648897483296877E-04    0.2030291793257650E+00   -0.6282938034862231E+01   -0.3614917552951704E-05   -0.5768177706311217E-09   -0.1328075149853447E-10    0.3760464162283483E-12   -0.3379287717708568E-08
 -0.4462   0.2257    0.9646045962285705E-02    0.7733150433486969E-02   -0.1596434135588703E-04    0.2094337554171156E+00   -0.7194056499443247E+01   -0.4144955052971022E-05   -0.4809359195612206E-09   -0.1792185844173844E-10    0.4621580895758370E-12   -0.3483114635258189E-08
 -0.4590   0.1956    0.8967149490537360E-02    0.8672164688045037E-02   -0.1480520607856499E-04    0.2166021429793772E+00   -0.8059533351505054E+01   -0.4649809819100822E-05   -0.3946595238113471E-09   -0.2305614033026870E-10    0.5012101844670269E-12   -0.3516322790234061E-08
 -0.4718   0.1656    0.1002443865938458E-01    0.9520306301276281E-02   -0.1299372860188955E-04    0.2246049811331237E+00   -0.8839323034924037E+01   -0.5106168670271769E-05   -0.3225238895399052E-09   -0.2837363677343774E-10    0.5170308625679354E-12   -0.3493308253776917E-08
 -0.4846   0.1356    0.1286483285960904E-01    0.1023391387928953E-01   -0.1049711033277995E-04    0.2334900589746331E+00   -0.9493219818875861E+01   -0.5490566764236906E-05   -0.2679444791042762E-09   -0.3336608767057214E-10    0.4733574643367433E-12   -0.3426677408838175E-08
 -0.4972   0.1059    0.1740639156786423E-01    0.1076961637373378E-01   -0.7283695824265743E-05    0.2432908358140523E+00   -0.9981431484863897E+01   -0.5779633114838113E-05   -0.2325773653527596E-09   -0.3742040011189829E-10    0.3757341660026725E-12   -0.3325206952668747E-08
 -0.5097   0.0766    0.2342118764507849E-01    0.1108558305681005E-01   -0.3328402053598377E-05    0.2540268718446064E+00   -0.1026573331374792E+02   -0.5950834632601093E-05   -0.2157572792302331E-09   -0.3986994068228000E-10    0.2796408937744133E-12   -0.3196323348358954E-08
 -0.5220   0.0478    0.3052608756041607E-01    0.1114454510447583E-01    0.1335258050859558E-05    0.2657012502061014E+00   -0.1031228555957605E+02   -0.5984014920213378E-05   -0.2143064605983347E-09   -0.4011874166209850E-10    0.1173176139568355E-12   -0.3045994593706136E-08
 -0.5340   0.0196    0.3818943682493058E-01    0.1091914747992003E-01    0.6579977845068622E-05    0.2782971387246474E+00   -0.1009652020599789E+02   -0.5864368169472637E-05   -0.2225996800081509E-09   -0.3779077051291324E-10   -0.7023895354230092E-13   -0.2878279373522141E-08
 -0.5457  -0.0078    0.4576413345881410E-01    0.1039914676940908E-01    0.1213440599993672E-04    0.2917746123369219E+00   -0.9609725347775646E+01   -0.5586221719676446E-05   -0.2332610944677516E-09   -0.3288436190018729E-10   -0.2432429258014679E-12   -0.2696623632725270E-08
 -0.5570  -0.0343    0.5255363320487259E-01    0.9598574177883243E-02    0.1758800541088564E-04    0.3060685247718417E+00   -0.8865483228641684E+01   -0.5157025441144465E-05   -0.2388208866777042E-09   -0.2577998925445968E-10   -0.4156119892684274E-12   -0.2504036526740361E-08
 -0.5679  -0.0599    0.5790697393978367E-01    0.8559942657904945E-02    0.2242769803222751E-04    0.3210878988001613E+00   -0.7903428607559254E+01   -0.4599517336434839E-05   -0.2331483825446234E-09   -0.1731453869169286E-10   -0.5520861545704747E-12   -0.2302250053792809E-08
 -0.5783  -0.0844    0.6132344546418951E-01    0.7352606198487306E-02    0.2614598354257921E-04    0.3367167219897033E+00   -0.6787584206252958E+01   -0.3951002947831421E-05   -0.2131398738058898E-09   -0.8565648190739239E-11   -0.6739053759474700E-12   -0.2094359179138916E-08
 -0.5882  -0.1076    0.6253677586556944E-01    0.6064128097538934E-02    0.2835592977760413E-04    0.3528152332668368E+00   -0.5598442336874176E+01   -0.3258558576147576E-05   -0.1794259255061270E-09   -0.6781242234410456E-12   -0.7451261829771738E-12   -0.1882022340055078E-08
 -0.5976  -0.1296    0.6155027302052371E-01    0.4786360030260840E-02    0.2889687435581496E-04    0.3692201228990015E+00   -0.4420189903154475E+01   -0.2571704162140121E-05   -0.1358682957808277E-09    0.5447586826079487E-11   -0.7816802760629571E-12   -0.1667198403637604E-08
 -0.6064  -0.1502    0.5861187782282339E-01    0.3600493198178967E-02    0.2785725190975991E-04    0.3857421525731866E+00   -0.3327169411555261E+01   -0.1934129829751313E-05   -0.8816827823387996E-10    0.9332118411364831E-11   -0.7542300117791001E-12   -0.1452872934806781E-08
 -0.6145  -0.1693    0.5414136362382140E-01    0.2565817888631235E-02    0.2552915134022524E-04    0.4021610726931971E+00   -0.2373607687754196E+01   -0.1377854825983441E-05   -0.4207546117074301E-10    0.1097118229598237E-10   -0.7030070969804569E-12   -0.1241241047444941E-08
 -0.6220  -0.1868    0.4863873256642963E-01    0.1715175325656045E-02    0.2229745422939701E-04    0.4182202832795613E+00   -0.1589588447576039E+01   -0.9204976137137144E-06   -0.2048361480433414E-11    0.1074186573024605E-10   -0.7000372503895846E-12   -0.1036284072442051E-08
 -0.6288  -0.2027    0.4260331091729549E-01    0.1057001401742405E-02    0.1853093390445844E-04    0.4336262377456461E+00   -0.9828106501781311E+00   -0.5666954619910962E-06    0.2948093158483545E-10    0.9245864490692313E-11   -0.6641354133307686E-12   -0.8401835546734127E-09
 -0.6348  -0.2169    0.3648155703227854E-01    0.5815038468325282E-03    0.1450379963661675E-04    0.4480580274178688E+00   -0.5443122454195179E+00   -0.3110677015987629E-06    0.5195745569896992E-10    0.7125394024809495E-11   -0.6415978859308780E-12   -0.6574302612721850E-09
 -0.6401  -0.2293    0.3064524479645998E-01    0.2674339690307675E-03    0.1039183703913752E-04    0.4611893228543644E+00   -0.2544266416449527E+00   -0.1423341296988909E-06    0.6634353136303339E-10    0.4939035291862126E-11   -0.6526376661319944E-12   -0.4912959639807868E-09
 -0.6446  -0.2399    0.2539036178051779E-01    0.8680420846156555E-04    0.6346251990171720E-05    0.4727186253618190E+00   -0.8723153251147091E-01   -0.4531241082784048E-07    0.7441011348752191E-10    0.3105564416738815E-11   -0.6506219174529093E-12   -0.3455464690424459E-09
 -0.6483  -0.2487    0.2094131216214812E-01    0.6458874210456168E-05    0.2660012506895238E-05    0.4823980713238606E+00   -0.1173010451056830E-01   -0.2459726869855521E-08    0.7848419743966550E-10    0.1852937941970723E-11   -0.6844889238744045E-12   -0.2228432473272424E-09
 -0.6513  -0.2555    0.1744823669229707E-01   -0.1130301431419592E-04   -0.1127613854670410E-06    0.4900500042114015E+00    0.6950508616926461E-02    0.6754656623696858E-08    0.8074585511802295E-10    0.1211017397473313E-11   -0.6934453011808728E-12   -0.1260251568900583E-09
 -0.6534  -0.2604    0.1497585716210922E-01   -0.4901770523819012E-05   -0.1182248192250474E-05    0.4955657806731570E+00    0.3942253584165406E-02    0.2680839070178919E-08    0.8347701458029377E-10    0.9666672844133029E-12   -0.7492227324656930E-12   -0.5632457998269724E-10
 -0.6546  -0.2633    0.1350828543794517E-01   -0.1977697047512152E-06   -0.1978123318713741E-06    0.4988900185433474E+00    0.6950584920441885E-03    0.1684142266873394E-09    0.8684631854806446E-10    0.5144165258694211E-12   -0.5202539787863003E-12   -0.1408345646049594E-10
 -0.6550  -0.2643    0.1301950938945405E-01    0.0000000000000000E+00    0.0000000000000000E+00    0.5000000000000000E+00   -0.6138085904656558E-04    0.0000000000000000E+00    0.0000000000000000E+00    0.0000000000000000E+00    0.0000000000000000E+00    0.0000000000000000E+00
 -0.2600   0.6543    0.2589985196146088E-01    0.0000000000000000E+00    0.0000000000000000E+00   -0.5000000000000000E+00   -0.4459633205174088E-02    0.0000000000000000E+00    0.0000000000000000E+00    0.0000000000000000E+00    0.0000000000000000E+00    0.0000000000000000E+00
 -0.2604   0.6534    0.2638094268745643E-01    0.1917605548675427E-05   -0.5995080631880075E-05   -0.4951792827409962E+00   -0.7140235135215294E-02   -0.2968778673168320E-08   -0.1199007958457149E-08   -0.6277756363793491E-12   -0.7766131487896288E-12    0.1066163119161495E-10
 -0.2616   0.6504    0.2779433195992698E-01    0.2983642366003226E-04   -0.2984071456843606E-04   -0.4807404523898152E+00   -0.1503207025469635E-01   -0.5964771600599438E-07   -0.1200296381384525E-08   -0.1779333516464809E-11   -0.1972073546130382E-11    0.4204368580715268E-10
 -0.2637   0.6455    0.3006730922047617E-01    0.1435226337749777E-03   -0.6313005435630919E-04   -0.4567701518175402E+00   -0.3561678096385246E-01   -0.3140174091304929E-06   -0.1202877027151050E-08   -0.1915571000432603E-11   -0.2683703953509919E-11    0.9448428497926820E-10
 -0.2666   0.6387    0.3311199902814912E-01    0.3965429360319575E-03   -0.8683786974830339E-04   -0.4234722679673872E+00   -0.8282705065204078E-01   -0.8848934873290281E-06   -0.1206069778769692E-08    0.5333754271585889E-13   -0.3231564321692915E-11    0.1671475839681857E-09
 -0.2704   0.6299    0.3680985721805251E-01    0.7865376801367028E-03   -0.9334566680138239E-04   -0.3812670398796640E+00   -0.1605352878622053E+00   -0.1755751124713817E-05   -0.1209075950470151E-08    0.4480971149689594E-11   -0.3572319523525991E-11    0.2588892954180633E-09
 -0.2749   0.6193    0.4096995511860740E-01    0.1254443484828878E-02   -0.8367964629526475E-04   -0.3309332131518400E+00   -0.2589435301204003E+00   -0.2787706511479892E-05   -0.1211058052452696E-08    0.1108407116090504E-10   -0.3671955101092195E-11    0.3662405517745881E-09
 -0.2802   0.6069    0.4531077633484416E-01    0.1712160634117864E-02   -0.6301039154213680E-04   -0.2737637491341929E+00   -0.3601344257633711E+00   -0.3783556440873170E-05   -0.1211325987432454E-08    0.1887463796368394E-10   -0.3567326989362130E-11    0.4826765584442505E-09
 -0.2862   0.5927    0.4946906672580050E-01    0.2076674575106226E-02   -0.3826970886512469E-04   -0.2116738141762544E+00   -0.4462020100533362E+00   -0.4560821608980706E-05   -0.1209581785427405E-08    0.2657597752975249E-10   -0.3305645687734504E-11    0.5966927021927582E-09