 title="result"
 variables="x","y","P","u","v","t","omega","psi","RES1","RES2","RES3","RES4"
zone,j= 49,i= 49,f=point
 -0.4000   0.5831    0.2507655496985741E-01    0.0000000000000000E+00    0.0000000000000000E+00   -0.5000000000000000E+00    0.0000000000000000E+00    0.0000000000000000E+00    0.0000000000000000E+00    0.0000000000000000E+00    0.0000000000000000E+00    0.0000000000000000E+00
 -0.4002   0.5820    0.2559889734343142E-01    0.0000000000000000E+00    0.0000000000000000E+00   -0.4957928023209022E+00   -0.1060947489700273E-03    0.0000000000000000E+00    0.0000000000000000E+00    0.0000000000000000E+00    0.0000000000000000E+00    0.0000000000000000E+00
 -0.4008   0.5789    0.2714262761405091E-01    0.0000000000000000E+00    0.0000000000000000E+00   -0.4831911569513766E+00   -0.4240789031875657E-02    0.0000000000000000E+00    0.0000000000000000E+00    0.0000000000000000E+00    0.0000000000000000E+00    0.0000000000000000E+00
 -0.4018   0.5736    0.2965110145573534E-01    0.0000000000000000E+00    0.0000000000000000E+00   -0.4622663789143016E+00   -0.1386683817176141E-01    0.0000000000000000E+00    0.0000000000000000E+00    0.0000000000000000E+00    0.0000000000000000E+00    0.0000000000000000E+00
 -0.4032   0.5663    0.3300956990791026E-01    0.0000000000000000E+00    0.0000000000000000E+00   -0.4331749049733034E+00   -0.2090552509072007E-01    0.0000000000000000E+00    0.0000000000000000E+00    0.0000000000000000E+00    0.0000000000000000E+00    0.0000000000000000E+00
 -0.4049   0.5570    0.3701226979576217E-01    0.0000000000000000E+00    0.0000000000000000E+00   -0.3962110865493426E+00   -0.1590026727796070E-01    0.0000000000000000E+00    0.0000000000000000E+00    0.0000000000000000E+00    0.0000000000000000E+00    0.0000000000000000E+00
 -0.4070   0.5457    0.4137654625151804E-01    0.0000000000000000E+00    0.0000000000000000E+00   -0.3518733024225888E+00    0.5229755348009198E-02    0.0000000000000000E+00    0.0000000000000000E+00    0.0000000000000000E+00    0.0000000000000000E+00    0.0000000000000000E+00
 -0.4095   0.5324    0.4576552952293250E-01    0.0000000000000000E+00    0.0000000000000000E+00   -0.3009391907594686E+00    0.3937410113829447E-01    0.0000000000000000E+00    0.0000000000000000E+00    0.0000000000000000E+00    0.0000000000000000E+00    0.0000000000000000E+00
 -0.4123   0.5172    0.4981523122689247E-01    0.0000000000000000E+00    0.0000000000000000E+00   -0.2445480320136886E+00    0.7636004932042405E-01    0.0000000000000000E+00    0.0000000000000000E+00    0.0000000000000000E+00    0.0000000000000000E+00    0.0000000000000000E+00
 -0.4155   0.5002    0.5316481651241386E-01    0.0000000000000000E+00    0.0000000000000000E+00   -0.1842826917952030E+00    0.1001585033528331E+00    0.0000000000000000E+00    0.0000000000000000E+00    0.0000000000000000E+00    0.0000000000000000E+00    0.0000000000000000E+00
 -0.4189   0.4815    0.5549134082819252E-01    0.0000000000000000E+00    0.0000000000000000E+00   -0.1222255994467643E+00    0.9068515218730851E-01    0.0000000000000000E+00    0.0000000000000000E+00    0.0000000000000000E+00    0.0000000000000000E+00    0.0000000000000000E+00
 -0.4227   0.4611    0.5654580104262624E-01    0.0000000000000000E+00    0.0000000000000000E+00   -0.6093767023177234E-01    0.2674827905135413E-01    0.0000000000000000E+00    0.0000000000000000E+00    0.0000000000000000E+00    0.0000000000000000E+00    0.0000000000000000E+00
 -0.4268   0.4391    0.5618309234221965E-01    0.0000000000000000E+00    0.0000000000000000E+00   -0.3290697501230643E-02   -0.1101559783939045E+00    0.0000000000000000E+00    0.0000000000000000E+00    0.0000000000000000E+00    0.0000000000000000E+00    0.0000000000000000E+00
 -0.4312   0.4156    0.5437698144080245E-01    0.0000000000000000E+00    0.0000000000000000E+00    0.4790079545336124E-01   -0.3327840354240306E+00    0.0000000000000000E+00    0.0000000000000000E+00    0.0000000000000000E+00    0.0000000000000000E+00    0.0000000000000000E+00
 -0.4358   0.3908    0.5121696101306237E-01    0.0000000000000000E+00    0.0000000000000000E+00    0.9042226807849855E-01   -0.6479032830265454E+00    0.0000000000000000E+00    0.0000000000000000E+00    0.0000000000000000E+00    0.0000000000000000E+00    0.0000000000000000E+00
 -0.4407   0.3646    0.4689067167967071E-01    0.0000000000000000E+00    0.0000000000000000E+00    0.1232112411534580E+00   -0.1058958048904779E+01    0.0000000000000000E+00    0.0000000000000000E+00    0.0000000000000000E+00    0.0000000000000000E+00    0.0000000000000000E+00
 -0.4458   0.3373    0.4165912058541745E-01    0.0000000000000000E+00    0.0000000000000000E+00    0.1466470244856884E+00   -0.1569142163991935E+01    0.0000000000000000E+00    0.0000000000000000E+00    0.0000000000000000E+00    0.0000000000000000E+00    0.0000000000000000E+00
 -0.4511   0.3089    0.3583139989080966E-01    0.0000000000000000E+00    0.0000000000000000E+00    0.1623717179166335E+00   -0.2181918312253015E+01    0.0000000000000000E+00    0.0000000000000000E+00    0.0000000000000000E+00    0.0000000000000000E+00    0.0000000000000000E+00
 -0.4565   0.2796    0.2974503503210136E-01    0.0000000000000000E+00    0.0000000000000000E+00    0.1726939956831826E+00   -0.2898284227241822E+01    0.0000000000000000E+00    0.0000000000000000E+00    0.0000000000000000E+00    0.0000000000000000E+00    0.0000000000000000E+00
 -0.4621   0.2495    0.2375492291638402E-01    0.0000000000000000E+00    0.0000000000000000E+00    0.1798846351599626E+00   -0.3712458052321646E+01    0.0000000000000000E+00    0.0000000000000000E+00    0.0000000000000000E+00    0.0000000000000000E+00    0.0000000000000000E+00
 -0.4679   0.2187    0.1822728224422577E-01    0.0000000000000000E+00    0.0000000000000000E+00    0.1856992933107080E+00   -0.4608388825909852E+01    0.0000000000000000E+00    0.0000000000000000E+00    0.0000000000000000E+00    0.0000000000000000E+00    0.0000000000000000E+00
 -0.4737   0.1874    0.1352976562863051E-01    0.0000000000000000E+00    0.0000000000000000E+00    0.1912554225374900E+00   -0.5558669960171417E+01    0.0000000000000000E+00    0.0000000000000000E+00    0.0000000000000000E+00    0.0000000000000000E+00    0.0000000000000000E+00
 -0.4796   0.1557    0.1001113120174585E-01    0.0000000000000000E+00    0.0000000000000000E+00    0.1971602942311434E+00   -0.6526076945315923E+01    0.0000000000000000E+00    0.0000000000000000E+00    0.0000000000000000E+00    0.0000000000000000E+00    0.0000000000000000E+00
 -0.4856   0.1237    0.7970864686383548E-02    0.0000000000000000E+00    0.0000000000000000E+00    0.2037112515190455E+00   -0.7466781623415836E+01    0.0000000000000000E+00    0.0000000000000000E+00    0.0000000000000000E+00    0.0000000000000000E+00    0.0000000000000000E+00
 -0.4916   0.0915    0.7624769911879226E-02    0.0000000000000000E+00    0.0000000000000000E+00    0.2110526278112803E+00   -0.8333897657224124E+01    0.0000000000000000E+00    0.0000000000000000E+00    0.0000000000000000E+00    0.0000000000000000E+00    0.0000000000000000E+00
 -0.4975   0.0594    0.9073043677655558E-02    0.0000000000000000E+00    0.0000000000000000E+00    0.2192629849402516E+00   -0.9080377330140754E+01    0.0000000000000000E+00    0.0000000000000000E+00    0.0000000000000000E+00    0.0000000000000000E+00    0.0000000000000000E+00
 -0.5035   0.0274    0.1227495566856911E-01    0.0000000000000000E+00    0.0000000000000000E+00    0.2283921974450436E+00   -0.9661111495901697E+01    0.0000000000000000E+00    0.0000000000000000E+00    0.0000000000000000E+00    0.0000000000000000E+00    0.0000000000000000E+00
 -0.5094  -0.0044    0.1703219969672111E-01    0.0000000000000000E+00    0.0000000000000000E+00    0.2384729867883492E+00   -0.1003483097879632E+02    0.0000000000000000E+00    0.0000000000000000E+00    0.0000000000000000E+00    0.0000000000000000E+00    0.0000000000000000E+00
 -0.5152  -0.0357    0.2298367655133677E-01    0.0000000000000000E+00    0.0000000000000000E+00    0.2495220671243775E+00   -0.1016674520607717E+02    0.0000000000000000E+00    0.0000000000000000E+00    0.0000000000000000E+00    0.0000000000000000E+00    0.0000000000000000E+00
 -0.5210  -0.0665    0.2961687569217063E-01    0.0000000000000000E+00    0.0000000000000000E+00    0.2615377871324668E+00   -0.1003257440615374E+02    0.0000000000000000E+00    0.0000000000000000E+00    0.0000000000000000E+00    0.0000000000000000E+00    0.0000000000000000E+00
 -0.5266  -0.0966    0.3630277738483599E-01    0.0000000000000000E+00    0.0000000000000000E+00    0.2744970653659953E+00   -0.9623834711852114E+01    0.0000000000000000E+00    0.0000000000000000E+00    0.0000000000000000E+00    0.0000000000000000E+00    0.0000000000000000E+00
 -0.5320  -0.1259    0.4235876631768957E-01    0.0000000000000000E+00    0.0000000000000000E+00    0.2883529076238480E+00   -0.8953133388103025E+01    0.0000000000000000E+00    0.0000000000000000E+00    0.0000000000000000E+00    0.0000000000000000E+00    0.0000000000000000E+00
 -0.5373  -0.1543    0.4713607873050574E-01    0.0000000000000000E+00    0.0000000000000000E+00    0.3030331932443417E+00   -0.8057336304527439E+01    0.0000000000000000E+00    0.0000000000000000E+00    0.0000000000000000E+00    0.0000000000000000E+00    0.0000000000000000E+00
 -0.5424  -0.1816    0.5011639024187150E-01    0.0000000000000000E+00    0.0000000000000000E+00    0.3184408811910365E+00   -0.6996360249343817E+01    0.0000000000000000E+00    0.0000000000000000E+00    0.0000000000000000E+00    0.0000000000000000E+00    0.0000000000000000E+00
 -0.5473  -0.2077    0.5099266226098870E-01    0.0000000000000000E+00    0.0000000000000000E+00    0.3344550815036699E+00   -0.5846471898279449E+01    0.0000000000000000E+00    0.0000000000000000E+00    0.0000000000000000E+00    0.0000000000000000E+00    0.0000000000000000E+00
 -0.5519  -0.2326    0.4970931644497106E-01    0.0000000000000000E+00    0.0000000000000000E+00    0.3509317269422585E+00   -0.4689090579876101E+01    0.0000000000000000E+00    0.0000000000000000E+00    0.0000000000000000E+00    0.0000000000000000E+00    0.0000000000000000E+00
 -0.5563  -0.2561    0.4644937363138410E-01    0.0000000000000000E+00    0.0000000000000000E+00    0.3677023140758134E+00   -0.3598169026803092E+01    0.0000000000000000E+00    0.0000000000000000E+00    0.0000000000000000E+00    0.0000000000000000E+00    0.0000000000000000E+00
 -0.5604  -0.2780    0.4157566766751006E-01    0.0000000000000000E+00    0.0000000000000000E+00    0.3845698895170820E+00   -0.2629996551876367E+01    0.0000000000000000E+00    0.0000000000000000E+00    0.0000000000000000E+00    0.0000000000000000E+00    0.0000000000000000E+00
 -0.5642  -0.2985    0.3554905005506714E-01    0.0000000000000000E+00    0.0000000000000000E+00    0.4013033370297759E+00   -0.1818182129914131E+01    0.0000000000000000E+00    0.0000000000000000E+00    0.0000000000000000E+00    0.0000000000000000E+00    0.0000000000000000E+00
 -0.5676  -0.3172    0.2885022023814036E-01    0.0000000000000000E+00    0.0000000000000000E+00    0.4176334770372202E+00   -0.1174343308523690E+01    0.0000000000000000E+00    0.0000000000000000E+00    0.0000000000000000E+00    0.0000000000000000E+00    0.0000000000000000E+00
 -0.5708  -0.3342    0.2192378618147947E-01    0.0000000000000000E+00    0.0000000000000000E+00    0.4332560219413238E+00   -0.6928740880309124E+00    0.0000000000000000E+00    0.0000000000000000E+00    0.0000000000000000E+00    0.0000000000000000E+00    0.0000000000000000E+00
 -0.5736  -0.3493    0.1515008248307823E-01    0.0000000000000000E+00    0.0000000000000000E+00    0.4478453530025268E+00   -0.3571917497031242E+00    0.0000000000000000E+00    0.0000000000000000E+00    0.0000000000000000E+00    0.0000000000000000E+00    0.0000000000000000E+00
 -0.5761  -0.3626    0.8839244261321849E-02    0.0000000000000000E+00    0.0000000000000000E+00    0.4610789215331357E+00   -0.1449617105691859E+00    0.0000000000000000E+00    0.0000000000000000E+00    0.0000000000000000E+00    0.0000000000000000E+00    0.0000000000000000E+00
 -0.5782  -0.3739    0.3236599885362044E-02    0.0000000000000000E+00    0.0000000000000000E+00    0.4726665280189915E+00   -0.3099568699566742E-01    0.0000000000000000E+00    0.0000000000000000E+00    0.0000000000000000E+00    0.0000000000000000E+00    0.0000000000000000E+00
 -0.5800  -0.3833   -0.1472298466900260E-02    0.0000000000000000E+00    0.0000000000000000E+00    0.4823750565843886E+00    0.1225975786524214E-01    0.0000000000000000E+00    0.0000000000000000E+00    0.0000000000000000E+00    0.0000000000000000E+00    0.0000000000000000E+00
 -0.5813  -0.3906   -0.5163748789935614E-02    0.0000000000000000E+00    0.0000000000000000E+00    0.4900401554512192E+00    0.1438049300959545E-01    0.0000000000000000E+00    0.0000000000000000E+00    0.0000000000000000E+00    0.0000000000000000E+00    0.0000000000000000E+00
 -0.5823  -0.3958   -0.7783776532247002E-02    0.0000000000000000E+00    0.0000000000000000E+00    0.4955619463801086E+00    0.4238344554149774E-02    0.0000000000000000E+00    0.0000000000000000E+00    0.0000000000000000E+00    0.0000000000000000E+00    0.0000000000000000E+00
 -0.5829  -0.3990   -0.9347045320775429E-02    0.0000000000000000E+00    0.0000000000000000E+00    0.4988890914597994E+00   -0.1128962734310957E-03    0.0000000000000000E+00    0.0000000000000000E+00    0.0000000000000000E+00    0.0000000000000000E+00    0.0000000000000000E+00
 -0.5831  -0.4000   -0.9870250440889633E-02    0.0000000000000000E+00    0.0000000000000000E+00    0.5000000000000000E+00    0.0000000000000000E+00    0.0000000000000000E+00    0.0000000000000000E+00    0.0000000000000000E+00    0.0000000000000000E+00    0.0000000000000000E+00
 -0.3990   0.5829    0.2517619653290774E-01    0.0000000000000000E+00    0.0000000000000000E+00   -0.5000000000000000E+00   -0.1062712023208738E-03    0.0000000000000000E+00    0.0000000000000000E+00    0.0000000000000000E+00    0.0000000000000000E+00    0.0000000000000000E+00
 -0.3992   0.5818    0.2569812803156349E-01    0.2224716802332470E-06   -0.2225730435683143E-06   -0.4957927055106438E+00   -0.5436985460589587E-03   -0.1518014168202568E-09   -0.7367948782555436E-09   -0.4301017820975556E-12   -0.4264015356081341E-12    0.8411353861689785E-11
 -0.3998   0.5787    0.2724117823331527E-01    0.4061091294319852E-05   -0.9618134089048990E-06   -0.4831907691708494E+00   -0.3464979589752035E-02   -0.2221784910786465E-08   -0.7398430767763947E-09   -0.8417203566091214E-12   -0.6213280757949580E-12    0.3350403244770095E-10
 -0.4007   0.5734    0.2974562816283982E-01    0.1296742520975211E-04   -0.8357873326022433E-06   -0.4622655059931106E+00   -0.1035421505702229E-01   -0.7299885625284694E-08   -0.7430370340278519E-09   -0.8421145725190371E-12   -0.6149234767216516E-12    0.7509692260404544E-10
 -0.4021   0.5661    0.3309507075058497E-01    0.1956825710763833E-04   -0.1322918905968105E-06   -0.4331733618066745E+00   -0.1568142561562332E-01   -0.1094515799566919E-07   -0.7460120294135262E-09   -0.5710900502498006E-12   -0.6505745378179717E-12    0.1333091102784234E-09
 -0.4038   0.5568    0.3708656242292255E-01    0.1428116791042030E-04    0.6870229582620901E-06   -0.3962087038613470E+00   -0.1079926091047518E-01   -0.8138203828138976E-08   -0.7490963984096294E-09    0.6025215049110244E-13   -0.6459516081747108E-12    0.2088401292177355E-09
 -0.4059   0.5455    0.4143927946801754E-01   -0.7314381893851183E-05    0.1274826361075813E-05   -0.3518699203266431E+00    0.8391225688066623E-02    0.3626957121355784E-08   -0.7518853777435663E-09    0.1000837433762225E-11   -0.6603727981113749E-12    0.3017277087902226E-09
 -0.4084   0.5322    0.4581747357238725E-01   -0.4208225094442836E-04    0.1445292502929227E-05   -0.3009346488442832E+00    0.3919786570530481E-01    0.2253372676943620E-07   -0.7544385203367421E-09    0.2159693105775740E-11   -0.6441418579083980E-12    0.4125034688828855E-09
 -0.4112   0.5170    0.4985773667718074E-01   -0.7939721691950528E-04    0.1118910316010158E-05   -0.2445421740811648E+00    0.7191004670204722E-01    0.4292734113618513E-07   -0.7568539380289896E-09    0.3426727651634209E-11   -0.6570525373783553E-12    0.5389850302184307E-09
 -0.4144   0.5000    0.5319962108829653E-01   -0.1023800676727001E-03    0.2889297909037055E-06   -0.1842754001304061E+00    0.9104788570493054E-01    0.5566049694895697E-07   -0.7595879608895267E-09    0.4691799032618960E-11   -0.6268891655780706E-12    0.6772562094470302E-09
 -0.4179   0.4813    0.5552033150986771E-01   -0.8982598731663496E-04   -0.9979051490825278E-06   -0.1222168627916138E+00    0.7706241753807709E-01    0.4937979777431788E-07   -0.7632134473023466E-09    0.5913339262697548E-11   -0.6274017763652218E-12    0.8161398917794216E-09
 -0.4217   0.4609    0.5657082440391150E-01   -0.1931511401068293E-04   -0.2625920776429076E-05   -0.6092767481074689E-01    0.9274633740588267E-02    0.1199693678116206E-07   -0.7680982403932002E-09    0.7080516728485975E-11   -0.6057186002772497E-12    0.9358489261312997E-09
 -0.4258   0.4389    0.5620573327145120E-01    0.1287835240999383E-03   -0.4431962740903627E-05   -0.3279908304188310E-02   -0.1304979076619197E+00   -0.6699509700496431E-07   -0.7741800863575454E-09    0.8197248435592996E-11   -0.5825340210208196E-12    0.1004907865254090E-08
 -0.4302   0.4154    0.5439860114519386E-01    0.3680769197803808E-03   -0.6254882911839377E-05    0.4791162279563187E-01   -0.3549122866857485E+00   -0.1949154282420171E-06   -0.7804734306754435E-09    0.9270820222617715E-11   -0.5919674472831815E-12    0.9828179520221525E-09
 -0.4348   0.3906    0.5123889756344533E-01    0.7058452568787882E-03   -0.8005619947130267E-05    0.9043220782396008E-01   -0.6708109102010172E+00   -0.3756328584895575E-06   -0.7847724900478248E-09    0.1029969165511346E-10   -0.4939521014435400E-12    0.8300761744628460E-09
 -0.4397   0.3644    0.4691447470385484E-01    0.1145789439471711E-02   -0.9682671324423385E-05    0.1232194518647836E+00   -0.1081659603889653E+01   -0.6111440616458604E-06   -0.7836689526474760E-09    0.1128165616481880E-10   -0.4331951464209283E-12    0.5250404902512606E-09
 -0.4447   0.3371    0.4168645667294296E-01    0.1691220111766590E-02   -0.1132825648889222E-04    0.1466530268006578E+00   -0.1590454264853596E+01   -0.9032257571323797E-06   -0.7731876354444278E-09    0.1221145407015456E-10   -0.3127567649308105E-12    0.7793504730457812E-10
 -0.4500   0.3087    0.3586367480530087E-01    0.2345586557841670E-02   -0.1295316523660118E-04    0.1623755274827281E+00   -0.2200172346790882E+01   -0.1253781848500912E-05   -0.7498188944743411E-09    0.1308180647141555E-10   -0.2443392710382852E-12   -0.4659102860460340E-09
 -0.4555   0.2794    0.2978287697685513E-01    0.3109594755779313E-02   -0.1449414675616254E-04    0.1726960282982421E+00   -0.2911136527355964E+01   -0.1663245367582079E-05   -0.7113279444637133E-09    0.1385033754353060E-10   -0.1171840402491853E-12   -0.1040142822567036E-08
 -0.4611   0.2493    0.2379785536094508E-01    0.3976676928000689E-02   -0.1581579957003259E-04    0.1798854650847490E+00   -0.3716856046536318E+01   -0.2128175258694684E-05   -0.6572143836092170E-09    0.1442688156438887E-10    0.1383615444439101E-13   -0.1580063972023149E-08
 -0.4668   0.2185    0.1827364187276911E-01    0.4929355019598458E-02   -0.1674901225296182E-04    0.1856994287600862E+00   -0.4600729815999564E+01   -0.2639263607888028E-05   -0.5886217242789815E-09    0.1459507167900220E-10    0.1233041446724314E-12   -0.2040632513607057E-08
 -0.4726   0.1872    0.1357689980907521E-01    0.5938163236673328E-02   -0.1713555234677555E-04    0.1912552024336807E+00   -0.5535115579027206E+01   -0.3180764078464823E-05   -0.5081404880202811E-09    0.1407782224127629E-10    0.2290806433435932E-12   -0.2401817205191503E-08
 -0.4786   0.1555    0.1005569719407702E-01    0.6963343908975327E-02   -0.1686056659772288E-04    0.1971598976623608E+00   -0.6482962291477373E+01   -0.3731377701481962E-05   -0.4193524694162676E-09    0.1257871584670056E-10    0.3433642259409453E-12   -0.2664198110822330E-08
 -0.4845   0.1235    0.8009161725235870E-02    0.7958297221850957E-02   -0.1586100906324892E-04    0.2037107543820602E+00   -0.7401040594293065E+01   -0.4266103851048059E-05   -0.3265388237583267E-09    0.9945211321138459E-11    0.4049399704442180E-12   -0.2838878109152898E-08
 -0.4905   0.0913    0.7652957567429691E-02    0.8873354323980179E-02   -0.1411492007024510E-04    0.2110520547763770E+00   -0.8243443835463083E+01   -0.4758264533985286E-05   -0.2344294515455037E-09    0.6184663892128128E-11    0.4410222187445356E-12   -0.2939739096249894E-08
 -0.4965   0.0592    0.9087285178445021E-02    0.9658845601798673E-02   -0.1162399722718282E-04    0.2192623403079363E+00   -0.8964427830468544E+01   -0.5181145381627425E-05   -0.1478328882920099E-09    0.1514843805949795E-11    0.4240982565129059E-12   -0.2980279476330616E-08
 -0.5024   0.0272    0.1227147239066623E-01    0.1026731862587293E-01   -0.8402563197828984E-05    0.2283914792914659E+00   -0.9520448154513284E+01   -0.5509202031678432E-05   -0.7093379356115648E-10   -0.3645916901717783E-11    0.3765737721650453E-12   -0.2971569035975508E-08
 -0.5084  -0.0046    0.1700738153324284E-01    0.1065554496799218E-01   -0.4483951209036903E-05    0.2384721925090363E+00   -0.9872016665595686E+01   -0.5719119044794842E-05   -0.6811136724071964E-11   -0.8796685602163734E-11    0.2852648672835301E-12   -0.2922575044819742E-08
 -0.5142  -0.0359    0.2293427598550038E-01    0.1078729809264903E-01    0.5716891527555661E-07    0.2495211954976670E+00   -0.9986241927366482E+01   -0.5791332548208898E-05    0.4307194558699282E-10   -0.1336730726109181E-10    0.1439534255687214E-12   -0.2839782313815431E-08
 -0.5199  -0.0667    0.2954039754491023E-01    0.1063757974561544E-01    0.5070227269563611E-05    0.2615368390169289E+00   -0.9840706046636408E+01   -0.5712274002989047E-05    0.7909961748098215E-10   -0.1684941075552615E-10   -0.2775557561562891E-13   -0.2729195432149556E-08
 -0.5255  -0.0968    0.3619797536349787E-01    0.1019812957405740E-01    0.1030179815512032E-04    0.2744960436075380E+00   -0.9428456975920181E+01   -0.5477388201645241E-05    0.1035322938491845E-09   -0.1880628985873045E-10   -0.2318978342685796E-12   -0.2595235141372720E-08
 -0.5310  -0.1261    0.4222619487692392E-01    0.9482903829328400E-02    0.1538939870371368E-04    0.2883518162328125E+00   -0.8762967013030591E+01   -0.5094048727303045E-05    0.1201375214587852E-09   -0.1900718471503637E-10   -0.3908123824558629E-12   -0.2441631464719651E-08
 -0.5363  -0.1545    0.4697843565425732E-01    0.8531290560107031E-02    0.1989870143831543E-04    0.3030320359334855E+00   -0.7880950004487173E+01   -0.4583370648651008E-05    0.1334366020455668E-09   -0.1747568756371720E-10   -0.6039613253960852E-12   -0.2271945929999131E-08
 -0.5413  -0.1818    0.4993852327080053E-01    0.7406736143763416E-02    0.2339713505807252E-04    0.3184396596795014E+00   -0.6841028079122114E+01   -0.3979418498122800E-05    0.1476621325213756E-09   -0.1449484976490112E-10   -0.7828321324510057E-12   -0.2089655570108873E-08
 -0.5462  -0.2079    0.5080105589012358E-01    0.6189652456795664E-02    0.2555443923803139E-04    0.3344537944247227E+00   -0.5717152050107770E+01   -0.3325478562575407E-05    0.1659263004771816E-09   -0.1057137710702705E-10   -0.8820028041256478E-12   -0.1897359415414801E-08
 -0.5508  -0.2328    0.4951121999232663E-01    0.4965672596915200E-02    0.2622139002585727E-04    0.3509303704854267E+00   -0.4587892366223995E+01   -0.2667631731198772E-05    0.1893350753956469E-09   -0.6336653424199312E-11   -0.9857253902012530E-12   -0.1699252455758526E-08
 -0.5552  -0.2563    0.4625172786797454E-01    0.3812470303941698E-02    0.2546556717950363E-04    0.3677008853490203E+00   -0.3524394125904694E+01   -0.2047753986606281E-05    0.2171748614276936E-09   -0.2387645636758862E-11   -0.1042568809062061E-11   -0.1498220270068629E-08
 -0.5593  -0.2782    0.4138424995798328E-01    0.2789133321245934E-02    0.2353268257436534E-04    0.3845683927649844E+00   -0.2580769310054787E+01   -0.1497642664670771E-05    0.2472730215030694E-09    0.7963074644123935E-12   -0.1052519182920264E-11   -0.1297713905085152E-08
 -0.5631  -0.2987    0.3536796540011859E-01    0.1930949090919147E-02    0.2077077778037530E-04    0.4013017913344101E+00   -0.1789315846167546E+01   -0.1036355901542759E-05    0.2770145640651478E-09    0.2972705415160704E-11   -0.1031050245181575E-11   -0.1101220770821643E-08
 -0.5666  -0.3174    0.2868192828489909E-01    0.1250130655796578E-02    0.1752649835104037E-04    0.4176319224808801E+00   -0.1161253584924134E+01   -0.6704151846794293E-06    0.3039192994491735E-09    0.4110073392737945E-11   -0.9898332153923661E-12   -0.9129046199540802E-09
 -0.5698  -0.3344    0.2176941476883222E-01    0.7407931759701538E-03    0.1408145032317873E-04    0.4332545204353174E+00   -0.6911697519245156E+00   -0.3967174068566718E-06    0.3263349486470890E-09    0.4365813266460350E-11   -0.9874878692528455E-12   -0.7351469294425428E-09
 -0.5726  -0.3495    0.1500996243476406E-01    0.3854525094017012E-03    0.1061039323185472E-04    0.4478439810124183E+00   -0.3630169677628041E+00   -0.2057735550657546E-06    0.3435051167122172E-09    0.3994879080315705E-11   -0.9567416303646326E-12   -0.5717701364454930E-09
 -0.5751  -0.3628    0.8713213552659298E-02    0.1604650271100550E-03    0.7224351851849663E-05    0.4610777548690879E+00   -0.1549165344779882E+00   -0.8498367900941281E-07    0.3556304122714904E-09    0.3293535583148710E-11   -0.9477696405468805E-12   -0.4253541919727044E-09
 -0.5772  -0.3741    0.3124012326195131E-02    0.3902263068372977E-04    0.4026086643856685E-05    0.4726656226641477E+00   -0.4203050800035631E-01   -0.1983889018350242E-07    0.3634911642513838E-09    0.2529528669859005E-11   -0.9255200772440020E-12   -0.2974609230807501E-09
 -0.5789  -0.3835   -0.1573237512342631E-02   -0.8239739855734142E-05    0.1273114361430762E-05    0.4823744324271665E+00    0.3044288659284400E-02    0.5232460535875696E-08    0.3684773970322186E-09    0.1908608687761770E-11   -0.9389876029497479E-12   -0.1918108076884306E-09
 -0.5803  -0.3908   -0.5257124971277075E-02   -0.1273173034600310E-04   -0.6176523878671644E-06    0.4900397899472269E+00    0.9272679763396206E-02    0.7336505996125303E-08    0.3719841938816526E-09    0.1517421605035096E-11   -0.9220692785694151E-12   -0.1084050800514991E-09
 -0.5812  -0.3960   -0.7876902064650585E-02   -0.4201094821897421E-05   -0.1090324141159056E-05    0.4955617814899635E+00    0.3704017378714066E-02    0.2250453151635935E-08    0.3759748677754221E-09    0.1284453880062708E-11   -0.9864804285941720E-12   -0.4827017930329747E-10
 -0.5818  -0.3992   -0.9442479276690362E-02   -0.1309536512216393E-06   -0.1311932252977748E-06    0.4988890501115753E+00    0.5693027136596750E-03    0.1128448592461896E-09    0.3804431753353169E-09    0.6766304096877951E-12   -0.6838986842117034E-12   -0.1203025206579847E-10
 -0.5820  -0.4002   -0.9965793873954513E-02    0.0000000000000000E+00    0.0000000000000000E+00    0.5000000000000000E+00   -0.1123481060388515E-03    0.0000000000000000E+00    0.0000000000000000E+00    0.0000000000000000E+00    0.0000000000000000E+00    0.0000000000000000E+00
 -0.3958   0.5823    0.2546926428521596E-01    0.0000000000000000E+00    0.0000000000000000E+00   -0.5000000000000000E+00   -0.4240546180852903E-02    0.0000000000000000E+00    0.0000000000000000E+00    0.0000000000000000E+00    0.0000000000000000E+00    0.0000000000000000E+00
 -0.3960   0.5812    0.2598940740529739E-01    0.9613508855779486E-06   -0.4060621052876069E-05   -0.4957912633283705E+00   -0.3464295773017493E-02   -0.2221542162718178E-08   -0.7396090001294403E-09   -0.5966214393186842E-12   -0.8164303651539417E-12    0.8408161211552467E-11
 -0.3966   0.5781    0.2752875381965051E-01    0.1080562477922594E-04   -0.1080780171527328E-04   -0.4831850007709705E+00   -0.2010437960742547E-02   -0.2804923973016486E-07   -0.7408068707082105E-09   -0.1919315184215065E-11   -0.1990017959446755E-11    0.3329097934823277E-10
 -0.3976   0.5728    0.3002266146350387E-01    0.3364271206333297E-04   -0.1017143663822718E-04   -0.4622525393846590E+00   -0.2192145656411730E-02   -0.8836075316180627E-07   -0.7430843522969466E-09   -0.2451252742452503E-11   -0.2533961538861429E-11    0.7486506987258723E-10
 -0.3989   0.5655    0.3334950952234880E-01    0.5004513715796180E-04   -0.1212630610807020E-05   -0.4331504126051924E+00   -0.2763879070573546E-02   -0.1325531954108700E-06   -0.7458371431849804E-09   -0.1720954108386241E-11   -0.2865279953405409E-11    0.1331390553360734E-09
 -0.4007   0.5562    0.3731071995252378E-01    0.2901289613202431E-04    0.1014092710084038E-04   -0.3961731412554881E+00    0.1928543827381563E-02   -0.8766926604312635E-07   -0.7487058204316832E-09    0.4111589541055949E-12   -0.3057199025185975E-11    0.2086960187996922E-09
 -0.4028   0.5449    0.4163076606606998E-01   -0.4623806824584421E-04    0.1849307981233817E-04   -0.3518192149240127E+00    0.1577169310493637E-01    0.8354875605050503E-07   -0.7514729116753216E-09    0.3788623928469015E-11   -0.3168230434946739E-11    0.3016646689391056E-09
 -0.4053   0.5316    0.4597752115788410E-01   -0.1650530724447514E-03    0.2069971510811690E-04   -0.3008662980821807E+00    0.3701078745979581E-01    0.3564682098638158E-06   -0.7540744105527519E-09    0.8041837161465448E-11   -0.3173892572372328E-11    0.4123048985560374E-09
 -0.4081   0.5164    0.4998970644576241E-01   -0.2879647812812643E-03    0.1538995938291926E-04   -0.2444538446180479E+00    0.5735838640183186E-01    0.6440263055080399E-06   -0.7565882347709829E-09    0.1274891650582255E-10   -0.3092058727116598E-11    0.5389999141458546E-09