 title="result"
 variables="x","y","P","u","v","t","omega","psi","RES1","RES2","RES3","RES4"
zone,j= 49,i= 49,f=point
 -0.3660   0.6050    0.2512539256217831E-01    0.0000000000000000E+00    0.0000000000000000E+00   -0.5000000000000000E+00    0.0000000000000000E+00    0.0000000000000000E+00    0.0000000000000000E+00    0.0000000000000000E+00    0.0000000000000000E+00    0.0000000000000000E+00
 -0.3663   0.6040    0.2564154864605390E-01    0.0000000000000000E+00    0.0000000000000000E+00   -0.4956179481309557E+00   -0.5305038017489488E-05    0.0000000000000000E+00    0.0000000000000000E+00    0.0000000000000000E+00    0.0000000000000000E+00    0.0000000000000000E+00
 -0.3670   0.6009    0.2716029227729630E-01    0.0000000000000000E+00    0.0000000000000000E+00   -0.4824927033133193E+00   -0.4190862771252060E-02    0.0000000000000000E+00    0.0000000000000000E+00    0.0000000000000000E+00    0.0000000000000000E+00    0.0000000000000000E+00
 -0.3683   0.5957    0.2961838395880675E-01    0.0000000000000000E+00    0.0000000000000000E+00   -0.4606998531594071E+00   -0.1881815140950435E-01    0.0000000000000000E+00    0.0000000000000000E+00    0.0000000000000000E+00    0.0000000000000000E+00    0.0000000000000000E+00
 -0.3701   0.5885    0.3291200391948369E-01    0.0000000000000000E+00    0.0000000000000000E+00   -0.4304084619052724E+00   -0.4145302516786338E-01    0.0000000000000000E+00    0.0000000000000000E+00    0.0000000000000000E+00    0.0000000000000000E+00    0.0000000000000000E+00
 -0.3723   0.5792    0.3685842015800714E-01    0.0000000000000000E+00    0.0000000000000000E+00   -0.3919452058403101E+00   -0.6427807337730355E-01    0.0000000000000000E+00    0.0000000000000000E+00    0.0000000000000000E+00    0.0000000000000000E+00    0.0000000000000000E+00
 -0.3751   0.5681    0.4119658861849656E-01    0.0000000000000000E+00    0.0000000000000000E+00   -0.3458796217241465E+00   -0.8028793442194117E-01    0.0000000000000000E+00    0.0000000000000000E+00    0.0000000000000000E+00    0.0000000000000000E+00    0.0000000000000000E+00
 -0.3783   0.5549    0.4560173621627531E-01    0.0000000000000000E+00    0.0000000000000000E+00   -0.2931214236775351E+00   -0.8611714897749718E-01    0.0000000000000000E+00    0.0000000000000000E+00    0.0000000000000000E+00    0.0000000000000000E+00    0.0000000000000000E+00
 -0.3820   0.5400    0.4970728920123212E-01    0.0000000000000000E+00    0.0000000000000000E+00   -0.2350146370913582E+00   -0.8380595699829245E-01    0.0000000000000000E+00    0.0000000000000000E+00    0.0000000000000000E+00    0.0000000000000000E+00    0.0000000000000000E+00
 -0.3861   0.5232    0.5313577161346100E-01    0.0000000000000000E+00    0.0000000000000000E+00   -0.1734036324907606E+00   -0.8204828549023750E-01    0.0000000000000000E+00    0.0000000000000000E+00    0.0000000000000000E+00    0.0000000000000000E+00    0.0000000000000000E+00
 -0.3907   0.5047    0.5553950551805847E-01    0.0000000000000000E+00    0.0000000000000000E+00   -0.1106347769184135E+00   -0.9683673143804652E-01    0.0000000000000000E+00    0.0000000000000000E+00    0.0000000000000000E+00    0.0000000000000000E+00    0.0000000000000000E+00
 -0.3957   0.4845    0.5664760084004232E-01    0.0000000000000000E+00    0.0000000000000000E+00   -0.4945065664009038E-01   -0.1499415108792534E+00    0.0000000000000000E+00    0.0000000000000000E+00    0.0000000000000000E+00    0.0000000000000000E+00    0.0000000000000000E+00
 -0.4010   0.4628    0.5630628595043444E-01    0.0000000000000000E+00    0.0000000000000000E+00    0.7260443531831793E-02   -0.2645471834062427E+00    0.0000000000000000E+00    0.0000000000000000E+00    0.0000000000000000E+00    0.0000000000000000E+00    0.0000000000000000E+00
 -0.4067   0.4396    0.5449747631184072E-01    0.0000000000000000E+00    0.0000000000000000E+00    0.5686778270539061E-01   -0.4597670609364403E+00    0.0000000000000000E+00    0.0000000000000000E+00    0.0000000000000000E+00    0.0000000000000000E+00    0.0000000000000000E+00
 -0.4128   0.4151    0.5132922677377200E-01    0.0000000000000000E+00    0.0000000000000000E+00    0.9749506019827246E-01   -0.7475899602299516E+00    0.0000000000000000E+00    0.0000000000000000E+00    0.0000000000000000E+00    0.0000000000000000E+00    0.0000000000000000E+00
 -0.4191   0.3892    0.4700670997524043E-01    0.0000000000000000E+00    0.0000000000000000E+00    0.1284551232225227E+00   -0.1134092862197019E+01    0.0000000000000000E+00    0.0000000000000000E+00    0.0000000000000000E+00    0.0000000000000000E+00    0.0000000000000000E+00
 -0.4258   0.3623    0.4179907584494569E-01    0.0000000000000000E+00    0.0000000000000000E+00    0.1504083136875638E+00   -0.1622832212778191E+01    0.0000000000000000E+00    0.0000000000000000E+00    0.0000000000000000E+00    0.0000000000000000E+00    0.0000000000000000E+00
 -0.4327   0.3342    0.3601326797796642E-01    0.0000000000000000E+00    0.0000000000000000E+00    0.1651091822483439E+00   -0.2216514570139584E+01    0.0000000000000000E+00    0.0000000000000000E+00    0.0000000000000000E+00    0.0000000000000000E+00    0.0000000000000000E+00
 -0.4398   0.3053    0.2997817304268085E-01    0.0000000000000000E+00    0.0000000000000000E+00    0.1748246586431748E+00   -0.2915230590292049E+01    0.0000000000000000E+00    0.0000000000000000E+00    0.0000000000000000E+00    0.0000000000000000E+00    0.0000000000000000E+00
 -0.4471   0.2756    0.2403764825181242E-01    0.0000000000000000E+00    0.0000000000000000E+00    0.1817034957942964E+00   -0.3712701293352257E+01    0.0000000000000000E+00    0.0000000000000000E+00    0.0000000000000000E+00    0.0000000000000000E+00    0.0000000000000000E+00
 -0.4546   0.2452    0.1854685673262325E-01    0.0000000000000000E+00    0.0000000000000000E+00    0.1873748613020546E+00   -0.4593087369007042E+01    0.0000000000000000E+00    0.0000000000000000E+00    0.0000000000000000E+00    0.0000000000000000E+00    0.0000000000000000E+00
 -0.4622   0.2142    0.1386388300911919E-01    0.0000000000000000E+00    0.0000000000000000E+00    0.1928654645818605E+00   -0.5529999398026698E+01    0.0000000000000000E+00    0.0000000000000000E+00    0.0000000000000000E+00    0.0000000000000000E+00    0.0000000000000000E+00
 -0.4699   0.1829    0.1033098210397280E-01    0.0000000000000000E+00    0.0000000000000000E+00    0.1987318397683290E+00   -0.6487909208531794E+01    0.0000000000000000E+00    0.0000000000000000E+00    0.0000000000000000E+00    0.0000000000000000E+00    0.0000000000000000E+00
 -0.4777   0.1513    0.8246225228469456E-02    0.0000000000000000E+00    0.0000000000000000E+00    0.2052479923339586E+00   -0.7425082969720819E+01    0.0000000000000000E+00    0.0000000000000000E+00    0.0000000000000000E+00    0.0000000000000000E+00    0.0000000000000000E+00
 -0.4855   0.1195    0.7831131872370247E-02    0.0000000000000000E+00    0.0000000000000000E+00    0.2125490201483629E+00   -0.8296779707818356E+01    0.0000000000000000E+00    0.0000000000000000E+00    0.0000000000000000E+00    0.0000000000000000E+00    0.0000000000000000E+00
 -0.4933   0.0878    0.9200288162275510E-02    0.0000000000000000E+00    0.0000000000000000E+00    0.2207101975494458E+00   -0.9057792431587762E+01    0.0000000000000000E+00    0.0000000000000000E+00    0.0000000000000000E+00    0.0000000000000000E+00    0.0000000000000000E+00
 -0.5011   0.0561    0.1233641468386451E-01    0.0000000000000000E+00    0.0000000000000000E+00    0.2297803964442814E+00   -0.9664171304853697E+01    0.0000000000000000E+00    0.0000000000000000E+00    0.0000000000000000E+00    0.0000000000000000E+00    0.0000000000000000E+00
 -0.5088   0.0248    0.1707240769831395E-01    0.0000000000000000E+00    0.0000000000000000E+00    0.2397923334827687E+00   -0.1007471606453526E+02    0.0000000000000000E+00    0.0000000000000000E+00    0.0000000000000000E+00    0.0000000000000000E+00    0.0000000000000000E+00
 -0.5164  -0.0062    0.2308252463792408E-01    0.0000000000000000E+00    0.0000000000000000E+00    0.2507633476654935E+00   -0.1025319710749759E+02    0.0000000000000000E+00    0.0000000000000000E+00    0.0000000000000000E+00    0.0000000000000000E+00    0.0000000000000000E+00
 -0.5239  -0.0366    0.2988769821996899E-01    0.0000000000000000E+00    0.0000000000000000E+00    0.2626929171999883E+00   -0.1017208376611438E+02    0.0000000000000000E+00    0.0000000000000000E+00    0.0000000000000000E+00    0.0000000000000000E+00    0.0000000000000000E+00
 -0.5312  -0.0663    0.3688246419555136E-01    0.0000000000000000E+00    0.0000000000000000E+00    0.2755594618337232E+00   -0.9817829074090669E+01    0.0000000000000000E+00    0.0000000000000000E+00    0.0000000000000000E+00    0.0000000000000000E+00    0.0000000000000000E+00
 -0.5384  -0.0952    0.4338986929781897E-01    0.0000000000000000E+00    0.0000000000000000E+00    0.2893176534242755E+00   -0.9196674891596855E+01    0.0000000000000000E+00    0.0000000000000000E+00    0.0000000000000000E+00    0.0000000000000000E+00    0.0000000000000000E+00
 -0.5453  -0.1232    0.4874379761237574E-01    0.0000000000000000E+00    0.0000000000000000E+00    0.3038969516201885E+00   -0.8338902247428550E+01    0.0000000000000000E+00    0.0000000000000000E+00    0.0000000000000000E+00    0.0000000000000000E+00    0.0000000000000000E+00
 -0.5519  -0.1502    0.5238624619273250E-01    0.0000000000000000E+00    0.0000000000000000E+00    0.3192016126499331E+00   -0.7299090148857605E+01    0.0000000000000000E+00    0.0000000000000000E+00    0.0000000000000000E+00    0.0000000000000000E+00    0.0000000000000000E+00
 -0.5583  -0.1761    0.5395572722619900E-01    0.0000000000000000E+00    0.0000000000000000E+00    0.3351117465130616E+00   -0.6150785907522314E+01    0.0000000000000000E+00    0.0000000000000000E+00    0.0000000000000000E+00    0.0000000000000000E+00    0.0000000000000000E+00
 -0.5643  -0.2006    0.5333984675778346E-01    0.0000000000000000E+00    0.0000000000000000E+00    0.3514842517060908E+00   -0.4976030382781347E+01    0.0000000000000000E+00    0.0000000000000000E+00    0.0000000000000000E+00    0.0000000000000000E+00    0.0000000000000000E+00
 -0.5700  -0.2238    0.5067511749467772E-01    0.0000000000000000E+00    0.0000000000000000E+00    0.3681520625594500E+00   -0.3852470885186327E+01    0.0000000000000000E+00    0.0000000000000000E+00    0.0000000000000000E+00    0.0000000000000000E+00    0.0000000000000000E+00
 -0.5754  -0.2455    0.4629638803603645E-01    0.0000000000000000E+00    0.0000000000000000E+00    0.3849206580297299E+00   -0.2842028709987630E+01    0.0000000000000000E+00    0.0000000000000000E+00    0.0000000000000000E+00    0.0000000000000000E+00    0.0000000000000000E+00
 -0.5803  -0.2657    0.4065653200024567E-01    0.0000000000000000E+00    0.0000000000000000E+00    0.4015625127831374E+00   -0.1984372040392525E+01    0.0000000000000000E+00    0.0000000000000000E+00    0.0000000000000000E+00    0.0000000000000000E+00    0.0000000000000000E+00
 -0.5849  -0.2842    0.3424403780860195E-01    0.0000000000000000E+00    0.0000000000000000E+00    0.4178126818318267E+00   -0.1296322263311059E+01    0.0000000000000000E+00    0.0000000000000000E+00    0.0000000000000000E+00    0.0000000000000000E+00    0.0000000000000000E+00
 -0.5890  -0.3010    0.2752024302063070E-01    0.0000000000000000E+00    0.0000000000000000E+00    0.4333705779010300E+00   -0.7759247637921528E+00    0.0000000000000000E+00    0.0000000000000000E+00    0.0000000000000000E+00    0.0000000000000000E+00    0.0000000000000000E+00
 -0.5927  -0.3159    0.2088483269236528E-01    0.0000000000000000E+00    0.0000000000000000E+00    0.4479123961406818E+00   -0.4086292921068909E+00    0.0000000000000000E+00    0.0000000000000000E+00    0.0000000000000000E+00    0.0000000000000000E+00    0.0000000000000000E+00
 -0.5959  -0.3290    0.1466594736014910E-01    0.0000000000000000E+00    0.0000000000000000E+00    0.4611147369323286E+00   -0.1728286721171989E+00    0.0000000000000000E+00    0.0000000000000000E+00    0.0000000000000000E+00    0.0000000000000000E+00    0.0000000000000000E+00
 -0.5987  -0.3402    0.9124006150082329E-02    0.0000000000000000E+00    0.0000000000000000E+00    0.4726841912138389E+00   -0.4315367957250645E-01    0.0000000000000000E+00    0.0000000000000000E+00    0.0000000000000000E+00    0.0000000000000000E+00    0.0000000000000000E+00
 -0.6009  -0.3495    0.4456690173878146E-02    0.0000000000000000E+00    0.0000000000000000E+00    0.4823833349680744E+00    0.8843049086237710E-02    0.0000000000000000E+00    0.0000000000000000E+00    0.0000000000000000E+00    0.0000000000000000E+00    0.0000000000000000E+00
 -0.6027  -0.3567    0.7966335063231700E-03    0.0000000000000000E+00    0.0000000000000000E+00    0.4900439069060715E+00    0.1434421288431752E-01    0.0000000000000000E+00    0.0000000000000000E+00    0.0000000000000000E+00    0.0000000000000000E+00    0.0000000000000000E+00
 -0.6040  -0.3618   -0.1797520483440095E-02    0.0000000000000000E+00    0.0000000000000000E+00    0.4955634555436164E+00    0.4551144466696707E-02    0.0000000000000000E+00    0.0000000000000000E+00    0.0000000000000000E+00    0.0000000000000000E+00    0.0000000000000000E+00
 -0.6048  -0.3650   -0.3342240283834635E-02    0.0000000000000000E+00    0.0000000000000000E+00    0.4988894596398518E+00   -0.9823420030055584E-04    0.0000000000000000E+00    0.0000000000000000E+00    0.0000000000000000E+00    0.0000000000000000E+00    0.0000000000000000E+00
 -0.6050  -0.3660   -0.3858719265897333E-02    0.0000000000000000E+00    0.0000000000000000E+00    0.5000000000000000E+00    0.0000000000000000E+00    0.0000000000000000E+00    0.0000000000000000E+00    0.0000000000000000E+00    0.0000000000000000E+00    0.0000000000000000E+00
 -0.3650   0.6048    0.2525464511708929E-01    0.0000000000000000E+00    0.0000000000000000E+00   -0.5000000000000000E+00   -0.5458827009774475E-05    0.0000000000000000E+00    0.0000000000000000E+00    0.0000000000000000E+00    0.0000000000000000E+00    0.0000000000000000E+00
 -0.3652   0.6037    0.2577024204798213E-01    0.1751232263864781E-06   -0.1752044645043575E-06   -0.4956178406735287E+00   -0.5521798032520661E-03   -0.1161626478379597E-09   -0.9526200733193241E-09   -0.3910929739781022E-12   -0.3713962731105580E-12    0.8914308419032124E-11
 -0.3660   0.6006    0.2728879647258079E-01    0.4438736760993526E-05   -0.1173448239644330E-05   -0.4824922714403168E+00   -0.4287625425734184E-02   -0.2352027415320860E-08   -0.9553360984237980E-09   -0.7430180602729930E-12   -0.5379073922395783E-12    0.3686329800439703E-10
 -0.3673   0.5954    0.2974439651041842E-01    0.1874862497687957E-04   -0.1689789735315765E-05   -0.4606988705174441E+00   -0.1625627555603199E-01   -0.1031369269399669E-07   -0.9584111906879578E-09   -0.7227612605631428E-12   -0.5304289993346423E-12    0.8252467285918552E-10
 -0.3690   0.5882    0.3302987629541772E-01    0.4149426070606553E-04   -0.1570788837659957E-05   -0.4304066927543058E+00   -0.3613421445106234E-01   -0.2269676416891662E-07   -0.9615895692552390E-09   -0.3463011127857740E-12   -0.5853303952640942E-12    0.1466216991569125E-09
 -0.3713   0.5790    0.3696411082380257E-01    0.6507671994110772E-04   -0.1096002022829432E-05   -0.3919424158567412E+00   -0.5734259914839110E-01   -0.3550312787224834E-07   -0.9648987286253741E-09    0.5203962261113304E-12   -0.5887590762143624E-12    0.2283719532925055E-09
 -0.3741   0.5678    0.4128770427972684E-01    0.8220529178417603E-04   -0.5178574241134927E-06   -0.3458755914318011E+00   -0.7334646033565528E-01   -0.4465102795748101E-07   -0.9677555232873170E-09    0.1856591269611130E-11   -0.5989718269983069E-12    0.3268037888914943E-09
 -0.3773   0.5547    0.4567715748860529E-01    0.8932359345545811E-04   -0.6909066140922649E-07   -0.2931159679528343E+00   -0.8081329489508966E-01   -0.4832356632525193E-07   -0.9698201715714703E-09    0.3520210165031123E-11   -0.6254266852676049E-12    0.4390232760664858E-09
 -0.3810   0.5397    0.4976704035024373E-01    0.8853492770818454E-04    0.9958427710798417E-07   -0.2350076372397205E+00   -0.8166182779075953E-01   -0.4758889325074739E-07   -0.9709384556121428E-09    0.5303599573402984E-11   -0.5941590400021166E-12    0.5592460175507519E-09
 -0.3851   0.5229    0.5318102687212717E-01    0.8896823782200642E-04   -0.1535848392049375E-06   -0.1733950819491346E+00   -0.8422966034430324E-01   -0.4742034270087211E-07   -0.9713273710744777E-09    0.7004077005878795E-11   -0.5590098696439671E-12    0.6762636978185910E-09
 -0.3897   0.5044    0.5557246854628718E-01    0.1074423144907463E-03   -0.9109095658549809E-06   -0.1106248338301842E+00   -0.1039605663322401E+00   -0.5683103443035511E-07   -0.9712782735211978E-09    0.8470120438364148E-11   -0.5710501516098532E-12    0.7735206780656867E-09
 -0.3946   0.4843    0.5667115181525058E-01    0.1668808612683971E-03   -0.2169622182868848E-05   -0.4943969068640531E-01   -0.1618968148481676E+00   -0.8819319812245826E-07   -0.9709048669204190E-09    0.9636173803340142E-11   -0.5203198982783874E-12    0.8266990980665412E-09
 -0.4000   0.4626    0.5632341581023644E-01    0.2917478929309066E-03   -0.3800003685245861E-05    0.7271830668517836E-02   -0.2805668151711767E+00   -0.1546380144251425E-06   -0.9696257850452805E-09    0.1050133591196101E-10   -0.5070457942402129E-12    0.8044355043201890E-09
 -0.4057   0.4394    0.5451089474783775E-01    0.5022931400390057E-03   -0.5610422925368802E-05    0.5687879714676253E-01   -0.4786815602552570E+00   -0.2670637617710982E-06   -0.9658754716174167E-09    0.1110619929356460E-10   -0.4277585230472170E-12    0.6736221858094638E-09
 -0.4117   0.4148    0.5134130167683234E-01    0.8113005695863759E-03   -0.7433651091246888E-05    0.9750485008293097E-01   -0.7681433869323721E+00   -0.4323056099604701E-06   -0.9569019604471762E-09    0.1149372264031001E-10   -0.3709602069967843E-12    0.4086485316801003E-09
 -0.4181   0.3890    0.4701964997868072E-01    0.1225283747508421E-02   -0.9203658841029767E-05    0.1284629963309937E+00   -0.1155041760591724E+01   -0.6538621006604333E-06   -0.9390481031656961E-09    0.1167547308833505E-10   -0.2993993941657891E-12    0.4542359544057462E-11
 -0.4247   0.3620    0.4181493659913394E-01    0.1747979144533753E-02   -0.1092380336254511E-04    0.1504139467870192E+00   -0.1642805106002813E+01   -0.9337357780501505E-06   -0.9085992513924168E-09    0.1163254215175158E-10   -0.2225095108165931E-12   -0.5142736722585362E-09
 -0.4316   0.3340    0.3603367383694296E-01    0.2382071206247411E-02   -0.1259911643376253E-04    0.1651126950579550E+00   -0.2233739224744923E+01   -0.1273408929469658E-05   -0.8626828661151276E-09    0.1131527510578323E-10   -0.1006555949700783E-12   -0.1094830278519643E-08
 -0.4387   0.3050    0.3000387598176209E-01    0.3127334391630571E-02   -0.1417076663885655E-04    0.1748265007994246E+00   -0.2927332799930352E+01   -0.1672813076216678E-05   -0.8001933109180737E-09    0.1063450022487089E-10   -0.1247613123922520E-13   -0.1672098888169660E-08
 -0.4461   0.2753    0.2406824883903840E-01    0.3976701322978109E-02   -0.1551803987107793E-04    0.1817042255940317E+00   -0.3716659542872659E+01   -0.2128229961871400E-05   -0.7219945544201245E-09    0.9453783242352465E-11    0.1033201302291786E-12   -0.2188411494553899E-08
 -0.4535   0.2449    0.1858076737464466E-01    0.4912942807594104E-02   -0.1648508981896541E-04    0.1873749538963148E+00   -0.4585370802444301E+01   -0.2630484763641060E-05   -0.6307585356801759E-09    0.7573452281972592E-11    0.2160632783798633E-12   -0.2607693082382892E-08
 -0.4612   0.2140    0.1389854457145789E-01    0.5907687225611589E-02   -0.1692872455413056E-04    0.1928652308147934E+00   -0.5506851922004638E+01   -0.3164412138729973E-05   -0.5305347272610561E-09    0.4758679561511769E-11    0.3213540544777516E-12   -0.2918800754043993E-08
 -0.4689   0.1826    0.1036316606889591E-01    0.6922978081169879E-02   -0.1674202426006622E-04    0.1987314420631054E+00   -0.6445719697873590E+01   -0.3709683528949659E-05   -0.4263887333488814E-09    0.8235495618791333E-12    0.4106298634454220E-12   -0.3127749430547472E-08
 -0.4767   0.1510    0.8272349590882645E-02    0.7914422979672075E-02   -0.1586707730447279E-04    0.2052474988344644E+00   -0.7360775001860151E+01   -0.4242482451158503E-05   -0.3240110992008827E-09   -0.4261341279843123E-11    0.4808931031163866E-12   -0.3249809703460838E-08
 -0.4845   0.1192    0.7847461541045351E-02    0.8834599507055379E-02   -0.1427937318337520E-04    0.2125484524808511E+00   -0.8208161896347306E+01   -0.4737345868105423E-05   -0.2290800500681645E-09   -0.1030905916188374E-10    0.4971856260027607E-12   -0.3301038585708238E-08
 -0.4923   0.0875    0.9203053010033031E-02    0.9635748095716674E-02   -0.1197479510910544E-04    0.2207095588500229E+00   -0.8943864500654817E+01   -0.5168589068017393E-05   -0.1469939309162172E-09   -0.1695393825329461E-10    0.4720251967071931E-12   -0.3296141921904638E-08
 -0.5001   0.0559    0.1232183670995475E-01    0.1027159508089150E-01   -0.8953836722799505E-05    0.2297796841815928E+00   -0.9525380511212406E+01   -0.5511313263659898E-05   -0.8198764930855695E-10   -0.2361300044384507E-10    0.4315575674596062E-12   -0.3246677162359324E-08
 -0.5078   0.0245    0.1703677544195926E-01    0.1069893266356993E-01   -0.5230420859985190E-05    0.2397915445282767E+00   -0.9913192082727793E+01   -0.5742219996729272E-05   -0.3661112212005602E-10   -0.2965094836326898E-10    0.3163407036321786E-12   -0.3161500105111625E-08
 -0.5154  -0.0064    0.2302235191440833E-01    0.1087996557404748E-01   -0.8505209178103857E-06    0.2507624802507419E+00   -0.1007291528024014E+02   -0.5840914268463461E-05   -0.1109247632982702E-10   -0.3436356754704661E-10    0.1976140605319809E-12   -0.3047805917366642E-08
 -0.5229  -0.0368    0.2980008787526900E-01    0.1078622905645707E-01    0.4068367046743981E-05    0.2626919716607057E+00   -0.9978907680686294E+01   -0.5791965954889232E-05   -0.3192460185097445E-11   -0.3717254282165072E-10    0.2154873501858390E-13   -0.2911017923240555E-08
 -0.5302  -0.0665    0.3676560961490121E-01    0.1040411215930432E-01    0.9307029795988245E-05    0.2755584406339948E+00   -0.9619283478927102E+01   -0.5587947105738786E-05   -0.8345869134673833E-11   -0.3763850342508590E-10   -0.1961417139817456E-12   -0.2754866093926389E-08
 -0.5373  -0.0955    0.4324365817151971E-01    0.9740882631741934E-02    0.1452647438381461E-04    0.2893165604679080E+00   -0.9001385776541637E+01   -0.5232624912667902E-05   -0.2026166040502986E-10   -0.3560990391449081E-10   -0.3986255769916625E-12   -0.2583199459893493E-08
 -0.5442  -0.1235    0.4857025862069900E-01    0.8829042103083521E-02    0.1929636736629700E-04    0.3038957908723899E+00   -0.8155647215931493E+01   -0.4743403282753130E-05   -0.3203037141075171E-10   -0.3127936798463793E-10   -0.5907913047664692E-12   -0.2398961881575068E-08
 -0.5509  -0.1505    0.5218969223389643E-01    0.7726482169461025E-02    0.2316006994777617E-04    0.3192003863935573E+00   -0.7135651401449625E+01   -0.4151340932021833E-05   -0.3759687700055636E-10   -0.2519789932264871E-10   -0.7252393130485757E-12   -0.2204855662629734E-08
 -0.5572  -0.1763    0.5374236642980471E-01    0.6510813046337623E-02    0.2573824514375803E-04    0.3351104540176484E+00   -0.6012833540370114E+01   -0.3498209367118181E-05   -0.3306756951593215E-10   -0.1816513606200942E-10   -0.8574252419180084E-12   -0.2002726212299577E-08
 -0.5633  -0.2009    0.5311697604522696E-01    0.5268358726329774E-02    0.2681845682576225E-04    0.3514828894576170E+00   -0.4866434595070809E+01   -0.2830450155009406E-05   -0.1741214811223912E-10   -0.1112387959523176E-10   -0.9642703302503719E-12   -0.1795694848025220E-08
 -0.5690  -0.2241    0.5045002483527430E-01    0.4080687348216926E-02    0.2640903998332108E-04    0.3681506271764886E+00   -0.3771179306160350E+01   -0.2192039629719543E-05    0.7605138740984785E-11   -0.4903050188076463E-11   -0.9766631947627502E-12   -0.1586102502809661E-08
 -0.5743  -0.2458    0.4607540105333105E-01    0.3012796124324562E-02    0.2471591460474417E-04    0.3849191522596674E+00   -0.2786589176651928E+01   -0.1617954224475895E-05    0.3837691275876409E-10   -0.7258083023486961E-13   -0.9944128853689449E-12   -0.1377076659300758E-08
 -0.5793  -0.2659    0.4044437647351733E-01    0.2106324597299097E-02    0.2207318475100134E-04    0.4015609534774103E+00   -0.1950768063827199E+01   -0.1130682026544356E-05    0.7061860124446540E-10    0.3113981295044255E-11   -0.9719725024837089E-12   -0.1171959746262830E-08
 -0.5838  -0.2844    0.3404375739397279E-01    0.1378944271632446E-02    0.1883716516610328E-04    0.4178111069766434E+00   -0.1279931398164378E+01   -0.7396796783658888E-06    0.1005884334159823E-09    0.4736495917700978E-11   -0.9539591339091658E-12   -0.9738908100104249E-09
 -0.5880  -0.3012    0.2733344997426716E-01    0.8286089449447957E-03    0.1531058904270027E-04    0.4333690486478397E+00   -0.7721839086396797E+00   -0.4439187780193402E-06    0.1257716639169182E-09    0.5096029501161503E-11   -0.9143658052934711E-12   -0.7864670147766928E-09
 -0.5916  -0.3162    0.2071224687210299E-01    0.4399786681566800E-03    0.1169226365586617E-04    0.4479109904694916E+00   -0.4134546288238460E+00   -0.2350550771806047E-06    0.1450000015890129E-09    0.4609828144208628E-11   -0.8988851329938541E-12   -0.6129354142292431E-09
 -0.5949  -0.3293    0.1450772578619022E-01    0.1901816955084414E-03    0.8108299531057085E-05    0.4611135344795859E+00   -0.1825759078911187E+00   -0.1009131856436322E-06    0.1584003987004090E-09    0.3698312489586186E-11   -0.9021949853860178E-12   -0.4566196257910216E-09
 -0.5976  -0.3405    0.8979791641486446E-02    0.5221091548873429E-04    0.4673898721753263E-05    0.4726832529958253E+00   -0.5452423129770444E-01   -0.2686645487222771E-07    0.1668542908006554E-09    0.2727762460352778E-11   -0.8799246054014276E-12   -0.3202637322008428E-09
 -0.5999  -0.3497    0.4324901979611363E-02   -0.4268896967761468E-05    0.1657629607601414E-05    0.4823826852677730E+00   -0.9706342944707610E-03    0.3158606735763785E-08    0.1719694525670334E-09    0.1954474776466597E-11   -0.8999467837611519E-12   -0.2065643784493476E-09
 -0.6017  -0.3569    0.6732228806909790E-03   -0.1240923504345616E-04   -0.4822988427377133E-06    0.4900435252639274E+00    0.8687098305584388E-02    0.7216715730757916E-08    0.1753613715826594E-09    0.1486819348195390E-11   -0.8862954857871697E-12   -0.1166279893841105E-09
 -0.6030  -0.3621   -0.1920283734919962E-02   -0.4418211868819225E-05   -0.1121417661013615E-05    0.4955632830987650E+00    0.3789858981178158E-02    0.2382236725804363E-08    0.1791702912336962E-09    0.1238023572547320E-11   -0.9460479274969735E-12   -0.5179273741655332E-10
 -0.6037  -0.3652   -0.3467336766495567E-02   -0.1506913247245359E-06   -0.1508894747497314E-06    0.4988894163773772E+00    0.6072942878203140E-03    0.1290032132853795E-09    0.1834817273159775E-09    0.6577792780945724E-12   -0.6591446138903834E-12   -0.1324672359651058E-10
 -0.6040  -0.3663   -0.3983958366081110E-02    0.0000000000000000E+00    0.0000000000000000E+00    0.5000000000000000E+00   -0.9772585710027227E-04    0.0000000000000000E+00    0.0000000000000000E+00    0.0000000000000000E+00    0.0000000000000000E+00    0.0000000000000000E+00
 -0.3618   0.6040    0.2564211175210683E-01    0.0000000000000000E+00    0.0000000000000000E+00   -0.5000000000000000E+00   -0.4190061898704777E-02    0.0000000000000000E+00    0.0000000000000000E+00    0.0000000000000000E+00    0.0000000000000000E+00    0.0000000000000000E+00
 -0.3621   0.6030    0.2615454135610101E-01    0.1172756431485247E-05   -0.4437837265018269E-05   -0.4956162425830944E+00   -0.4286641569076872E-02   -0.2351517100942924E-08   -0.9550475349798249E-09   -0.5437781572682071E-12   -0.6970786795013062E-12    0.9127034523125077E-11
 -0.3629   0.5998    0.2766805775890661E-01    0.1525802891370635E-04   -0.1526122491582104E-04   -0.4824858621691516E+00   -0.5204144924903165E-02   -0.3517977654924295E-07   -0.9561566738022775E-09   -0.1656050080053872E-11   -0.1729659818150431E-11    0.3668050412020119E-10
 -0.3641   0.5947    0.3011449456655366E-01    0.6022418263689189E-04   -0.2316553858586328E-04   -0.4606843401945699E+00   -0.1053593776185222E-01   -0.1423648755395151E-06   -0.9583854838207673E-09   -0.1996736977150082E-11   -0.2295634168869576E-11    0.8250232528400625E-10
 -0.3659   0.5874    0.3337844894549562E-01    0.1358812677655338E-03   -0.2285293776602997E-04   -0.4303805926580097E+00   -0.2294955763633026E-01   -0.3180311772738944E-06   -0.9612544978748749E-09   -0.8053349653813768E-12   -0.2696795044221378E-11    0.1466643039654825E-09
 -0.3682   0.5782    0.3727933931418831E-01    0.2203890808350220E-03   -0.1672755661149679E-04   -0.3919012502572045E+00   -0.3954406605418535E-01   -0.5079255716039339E-06   -0.9643334950015792E-09    0.2253964376253137E-11   -0.2985976917113664E-11    0.2283771921574029E-09
 -0.3709   0.5670    0.4156170948955588E-01    0.2883789527763451E-03   -0.8838574120467178E-05   -0.3458160142220001E+00   -0.5537524677877341E-01   -0.6537935249953635E-06   -0.9671401318689377E-09    0.7120155159912045E-11   -0.3140496543374560E-11    0.3267800162409795E-09
 -0.3742   0.5539    0.4590586064169880E-01    0.3265932136615963E-03   -0.2566875501613563E-05   -0.2930351104272748E+00   -0.6748235944705966E-01   -0.7264263761475783E-06   -0.9692642658539613E-09    0.1327404505757634E-10   -0.3122001138514130E-11    0.4391023725180965E-09
 -0.3779   0.5389    0.4994990492459207E-01    0.3426789963125325E-03   -0.4868915640581945E-06   -0.2349036443874541E+00   -0.7739967068526309E-01   -0.7427297222094097E-06   -0.9705671133323004E-09    0.1994907277563795E-10   -0.3011386496068469E-11    0.5591537372007238E-09