 title="result"
 variables="x","y","P","u","v","t","omega","psi","RES1","RES2","RES3","RES4"
zone,j= 49,i= 49,f=point
 -0.5000   0.5000    0.2270643468396054E-01    0.0000000000000000E+00    0.0000000000000000E+00   -0.5000000000000000E+00    0.0000000000000000E+00    0.0000000000000000E+00    0.0000000000000000E+00    0.0000000000000000E+00    0.0000000000000000E+00    0.0000000000000000E+00
 -0.5000   0.4989    0.2323694120207773E-01    0.0000000000000000E+00    0.0000000000000000E+00   -0.4963864399043597E+00   -0.3800735744697682E-03    0.0000000000000000E+00    0.0000000000000000E+00    0.0000000000000000E+00    0.0000000000000000E+00    0.0000000000000000E+00
 -0.5000   0.4957    0.2482456281428043E-01    0.0000000000000000E+00    0.0000000000000000E+00   -0.4855625676745522E+00   -0.4683955568790634E-02    0.0000000000000000E+00    0.0000000000000000E+00    0.0000000000000000E+00    0.0000000000000000E+00    0.0000000000000000E+00
 -0.5000   0.4904    0.2743826642600956E-01    0.0000000000000000E+00    0.0000000000000000E+00   -0.4675864724280989E+00   -0.1069188328870698E-02    0.0000000000000000E+00    0.0000000000000000E+00    0.0000000000000000E+00    0.0000000000000000E+00    0.0000000000000000E+00
 -0.5000   0.4830    0.3094367260521496E-01    0.0000000000000000E+00    0.0000000000000000E+00   -0.4425776853585583E+00    0.3567175916050594E-01    0.0000000000000000E+00    0.0000000000000000E+00    0.0000000000000000E+00    0.0000000000000000E+00    0.0000000000000000E+00
 -0.5000   0.4735    0.3507880150835469E-01    0.0000000000000000E+00    0.0000000000000000E+00   -0.4107397530709868E+00    0.1219096885327249E+00    0.0000000000000000E+00    0.0000000000000000E+00    0.0000000000000000E+00    0.0000000000000000E+00    0.0000000000000000E+00
 -0.5000   0.4619    0.3950378633071270E-01    0.0000000000000000E+00    0.0000000000000000E+00   -0.3723737965208041E+00    0.2558266179103845E+00    0.0000000000000000E+00    0.0000000000000000E+00    0.0000000000000000E+00    0.0000000000000000E+00    0.0000000000000000E+00
 -0.5000   0.4484    0.4384638017736552E-01    0.0000000000000000E+00    0.0000000000000000E+00   -0.3278862536313791E+00    0.4172839254893217E+00    0.0000000000000000E+00    0.0000000000000000E+00    0.0000000000000000E+00    0.0000000000000000E+00    0.0000000000000000E+00
 -0.5000   0.4330    0.4774710056221750E-01    0.0000000000000000E+00    0.0000000000000000E+00   -0.2778166879357996E+00    0.5722067132998115E+00    0.0000000000000000E+00    0.0000000000000000E+00    0.0000000000000000E+00    0.0000000000000000E+00    0.0000000000000000E+00
 -0.5000   0.4157    0.5089340458752003E-01    0.0000000000000000E+00    0.0000000000000000E+00   -0.2229232241718180E+00    0.6805178674663103E+00    0.0000000000000000E+00    0.0000000000000000E+00    0.0000000000000000E+00    0.0000000000000000E+00    0.0000000000000000E+00
 -0.5000   0.3967    0.5304109073817972E-01    0.0000000000000000E+00    0.0000000000000000E+00   -0.1643475598892680E+00    0.7059385520098841E+00    0.0000000000000000E+00    0.0000000000000000E+00    0.0000000000000000E+00    0.0000000000000000E+00    0.0000000000000000E+00
 -0.5000   0.3759    0.5401698759302117E-01    0.0000000000000000E+00    0.0000000000000000E+00   -0.1038296403685530E+00    0.6249185458075606E+00    0.0000000000000000E+00    0.0000000000000000E+00    0.0000000000000000E+00    0.0000000000000000E+00    0.0000000000000000E+00
 -0.5000   0.3536    0.5371186768436485E-01    0.0000000000000000E+00    0.0000000000000000E+00   -0.4385746025003730E-01    0.4305420936167086E+00    0.0000000000000000E+00    0.0000000000000000E+00    0.0000000000000000E+00    0.0000000000000000E+00    0.0000000000000000E+00
 -0.5000   0.3297    0.5207797406498066E-01    0.0000000000000000E+00    0.0000000000000000E+00    0.1243929360616647E-01    0.1292774770817874E+00    0.0000000000000000E+00    0.0000000000000000E+00    0.0000000000000000E+00    0.0000000000000000E+00    0.0000000000000000E+00
 -0.5000   0.3044    0.4914312317914013E-01    0.0000000000000000E+00    0.0000000000000000E+00    0.6181281995305734E-01   -0.2674575778521804E+00    0.0000000000000000E+00    0.0000000000000000E+00    0.0000000000000000E+00    0.0000000000000000E+00    0.0000000000000000E+00
 -0.5000   0.2778    0.4503161465241007E-01    0.0000000000000000E+00    0.0000000000000000E+00    0.1017718352698012E+00   -0.7513618509256551E+00    0.0000000000000000E+00    0.0000000000000000E+00    0.0000000000000000E+00    0.0000000000000000E+00    0.0000000000000000E+00
 -0.5000   0.2500    0.3997030606547165E-01    0.0000000000000000E+00    0.0000000000000000E+00    0.1314083480575894E+00   -0.1320524500670583E+01    0.0000000000000000E+00    0.0000000000000000E+00    0.0000000000000000E+00    0.0000000000000000E+00    0.0000000000000000E+00
 -0.5000   0.2211    0.3426800537368629E-01    0.0000000000000000E+00    0.0000000000000000E+00    0.1516576818575655E+00   -0.1977446988820710E+01    0.0000000000000000E+00    0.0000000000000000E+00    0.0000000000000000E+00    0.0000000000000000E+00    0.0000000000000000E+00
 -0.5000   0.1913    0.2828185176909761E-01    0.0000000000000000E+00    0.0000000000000000E+00    0.1647932043494540E+00   -0.2724080212058049E+01    0.0000000000000000E+00    0.0000000000000000E+00    0.0000000000000000E+00    0.0000000000000000E+00    0.0000000000000000E+00
 -0.5000   0.1607    0.2239035506819945E-01    0.0000000000000000E+00    0.0000000000000000E+00    0.1734868616843827E+00   -0.3556024616354171E+01    0.0000000000000000E+00    0.0000000000000000E+00    0.0000000000000000E+00    0.0000000000000000E+00    0.0000000000000000E+00
 -0.5000   0.1294    0.1697826587923452E-01    0.0000000000000000E+00    0.0000000000000000E+00    0.1800034980293964E+00   -0.4457816592798642E+01    0.0000000000000000E+00    0.0000000000000000E+00    0.0000000000000000E+00    0.0000000000000000E+00    0.0000000000000000E+00
 -0.5000   0.0975    0.1242244140653486E-01    0.0000000000000000E+00    0.0000000000000000E+00    0.1858631109743467E+00   -0.5401017910238274E+01    0.0000000000000000E+00    0.0000000000000000E+00    0.0000000000000000E+00    0.0000000000000000E+00    0.0000000000000000E+00
 -0.5000   0.0653    0.9068559841835024E-02    0.0000000000000000E+00    0.0000000000000000E+00    0.1919139695789139E+00   -0.6345724440784409E+01    0.0000000000000000E+00    0.0000000000000000E+00    0.0000000000000000E+00    0.0000000000000000E+00    0.0000000000000000E+00
 -0.5000   0.0327    0.7197229939033991E-02    0.0000000000000000E+00    0.0000000000000000E+00    0.1985705345484277E+00   -0.7244429325692401E+01    0.0000000000000000E+00    0.0000000000000000E+00    0.0000000000000000E+00    0.0000000000000000E+00    0.0000000000000000E+00
 -0.5000   0.0000    0.6986252822374145E-02    0.0000000000000000E+00    0.0000000000000000E+00    0.2060254484323325E+00   -0.8046571387327207E+01    0.0000000000000000E+00    0.0000000000000000E+00    0.0000000000000000E+00    0.0000000000000000E+00    0.0000000000000000E+00
 -0.5000  -0.0327    0.8476955734712023E-02    0.0000000000000000E+00    0.0000000000000000E+00    0.2143748494866531E+00   -0.8702555408713105E+01    0.0000000000000000E+00    0.0000000000000000E+00    0.0000000000000000E+00    0.0000000000000000E+00    0.0000000000000000E+00
 -0.5000  -0.0653    0.1155079804040731E-01    0.0000000000000000E+00    0.0000000000000000E+00    0.2236741942821338E+00   -0.9167064129822741E+01    0.0000000000000000E+00    0.0000000000000000E+00    0.0000000000000000E+00    0.0000000000000000E+00    0.0000000000000000E+00
 -0.5000  -0.0975    0.1592003545284508E-01    0.0000000000000000E+00    0.0000000000000000E+00    0.2339570590363424E+00   -0.9402186644665781E+01    0.0000000000000000E+00    0.0000000000000000E+00    0.0000000000000000E+00    0.0000000000000000E+00    0.0000000000000000E+00
 -0.5000  -0.1294    0.2113651964567413E-01    0.0000000000000000E+00    0.0000000000000000E+00    0.2452386642562197E+00   -0.9381085327607471E+01    0.0000000000000000E+00    0.0000000000000000E+00    0.0000000000000000E+00    0.0000000000000000E+00    0.0000000000000000E+00
 -0.5000  -0.1607    0.2662309440359913E-01    0.0000000000000000E+00    0.0000000000000000E+00    0.2575143568118602E+00   -0.9092380258869809E+01    0.0000000000000000E+00    0.0000000000000000E+00    0.0000000000000000E+00    0.0000000000000000E+00    0.0000000000000000E+00
 -0.5000  -0.1913    0.3173088092781671E-01    0.0000000000000000E+00    0.0000000000000000E+00    0.2707571485545661E+00   -0.8544558515295661E+01    0.0000000000000000E+00    0.0000000000000000E+00    0.0000000000000000E+00    0.0000000000000000E+00    0.0000000000000000E+00
 -0.5000  -0.2211    0.3581970573136815E-01    0.0000000000000000E+00    0.0000000000000000E+00    0.2849159496729403E+00   -0.7768785189324325E+01    0.0000000000000000E+00    0.0000000000000000E+00    0.0000000000000000E+00    0.0000000000000000E+00    0.0000000000000000E+00
 -0.5000  -0.2500    0.3834962281685981E-01    0.0000000000000000E+00    0.0000000000000000E+00    0.2999150866216879E+00   -0.6818233793723761E+01    0.0000000000000000E+00    0.0000000000000000E+00    0.0000000000000000E+00    0.0000000000000000E+00    0.0000000000000000E+00
 -0.5000  -0.2778    0.3896244322533912E-01    0.0000000000000000E+00    0.0000000000000000E+00    0.3156549150469595E+00   -0.5762717069118458E+01    0.0000000000000000E+00    0.0000000000000000E+00    0.0000000000000000E+00    0.0000000000000000E+00    0.0000000000000000E+00
 -0.5000  -0.3044    0.3753037830295996E-01    0.0000000000000000E+00    0.0000000000000000E+00    0.3320125667530027E+00   -0.4679090540385435E+01    0.0000000000000000E+00    0.0000000000000000E+00    0.0000000000000000E+00    0.0000000000000000E+00    0.0000000000000000E+00
 -0.5000  -0.3297    0.3415740304926369E-01    0.0000000000000000E+00    0.0000000000000000E+00    0.3488413519475007E+00   -0.3639721941377445E+01    0.0000000000000000E+00    0.0000000000000000E+00    0.0000000000000000E+00    0.0000000000000000E+00    0.0000000000000000E+00
 -0.5000  -0.3536    0.2913538170365301E-01    0.0000000000000000E+00    0.0000000000000000E+00    0.3659675626854645E+00   -0.2702364372617728E+01    0.0000000000000000E+00    0.0000000000000000E+00    0.0000000000000000E+00    0.0000000000000000E+00    0.0000000000000000E+00
 -0.5000  -0.3759    0.2287253221736589E-01    0.0000000000000000E+00    0.0000000000000000E+00    0.3831847610999219E+00   -0.1904206060163720E+01    0.0000000000000000E+00    0.0000000000000000E+00    0.0000000000000000E+00    0.0000000000000000E+00    0.0000000000000000E+00
 -0.5000  -0.3967    0.1581833070407899E-01    0.0000000000000000E+00    0.0000000000000000E+00    0.4002478864401847E+00   -0.1261149453489221E+01    0.0000000000000000E+00    0.0000000000000000E+00    0.0000000000000000E+00    0.0000000000000000E+00    0.0000000000000000E+00
 -0.5000  -0.4157    0.8404494178951368E-02    0.0000000000000000E+00    0.0000000000000000E+00    0.4168715976633893E+00   -0.7713610910205382E+00    0.0000000000000000E+00    0.0000000000000000E+00    0.0000000000000000E+00    0.0000000000000000E+00    0.0000000000000000E+00
 -0.5000  -0.4330    0.1010524243547273E-02    0.0000000000000000E+00    0.0000000000000000E+00    0.4327375623260207E+00   -0.4209645906713202E+00    0.0000000000000000E+00    0.0000000000000000E+00    0.0000000000000000E+00    0.0000000000000000E+00    0.0000000000000000E+00
 -0.5000  -0.4484   -0.6048091550406586E-02    0.0000000000000000E+00    0.0000000000000000E+00    0.4475128343130282E+00   -0.1896119722790910E+00    0.0000000000000000E+00    0.0000000000000000E+00    0.0000000000000000E+00    0.0000000000000000E+00    0.0000000000000000E+00
 -0.5000  -0.4619   -0.1251762463013773E-01    0.0000000000000000E+00    0.0000000000000000E+00    0.4608766816986620E+00   -0.5437714401077638E-01    0.0000000000000000E+00    0.0000000000000000E+00    0.0000000000000000E+00    0.0000000000000000E+00    0.0000000000000000E+00
 -0.5000  -0.4735   -0.1819905314975458E-01    0.0000000000000000E+00    0.0000000000000000E+00    0.4725486510457559E+00    0.8488817364615603E-02    0.0000000000000000E+00    0.0000000000000000E+00    0.0000000000000000E+00    0.0000000000000000E+00    0.0000000000000000E+00
 -0.5000  -0.4830   -0.2294457455375281E-01    0.0000000000000000E+00    0.0000000000000000E+00    0.4823090694836399E+00    0.2334999718574681E-01    0.0000000000000000E+00    0.0000000000000000E+00    0.0000000000000000E+00    0.0000000000000000E+00    0.0000000000000000E+00
 -0.5000  -0.4904   -0.2665927370600527E-01    0.0000000000000000E+00    0.0000000000000000E+00    0.4900058493375414E+00    0.1450142979932022E-01    0.0000000000000000E+00    0.0000000000000000E+00    0.0000000000000000E+00    0.0000000000000000E+00    0.0000000000000000E+00
 -0.5000  -0.4957   -0.2930527338903142E-01    0.0000000000000000E+00    0.0000000000000000E+00    0.4955471827493297E+00    0.3230364185431757E-02    0.0000000000000000E+00    0.0000000000000000E+00    0.0000000000000000E+00    0.0000000000000000E+00    0.0000000000000000E+00
 -0.5000  -0.4989   -0.3089309551058225E-01    0.0000000000000000E+00    0.0000000000000000E+00    0.4988854267745727E+00   -0.1594164970799357E-03    0.0000000000000000E+00    0.0000000000000000E+00    0.0000000000000000E+00    0.0000000000000000E+00    0.0000000000000000E+00
 -0.5000  -0.5000   -0.3142613874057795E-01    0.0000000000000000E+00    0.0000000000000000E+00    0.5000000000000000E+00    0.0000000000000000E+00    0.0000000000000000E+00    0.0000000000000000E+00    0.0000000000000000E+00    0.0000000000000000E+00    0.0000000000000000E+00
 -0.4989   0.5000    0.2270926196173014E-01    0.0000000000000000E+00    0.0000000000000000E+00   -0.5000000000000000E+00   -0.3800368083936199E-03    0.0000000000000000E+00    0.0000000000000000E+00    0.0000000000000000E+00    0.0000000000000000E+00    0.0000000000000000E+00
 -0.4989   0.4989    0.2323976902979379E-01    0.3643043768576010E-06   -0.3643150542380507E-06   -0.4963863728122924E+00   -0.5606640601183159E-03   -0.2594157814127107E-09   -0.3367988988828979E-09   -0.3809884265709718E-12   -0.4019740269811667E-12    0.3967421822927836E-11
 -0.4989   0.4957    0.2482549113500367E-01    0.3307605713810822E-05   -0.4489204585310213E-06   -0.4855623023279458E+00   -0.1433543989353693E-02   -0.2019349973989457E-08   -0.3394279424586213E-09   -0.7402108440079935E-12   -0.5547899955464595E-12    0.1518833236263673E-10
 -0.4989   0.4904    0.2743081859140955E-01   -0.2263720093523159E-05    0.1505524795207912E-05   -0.4675859005082044E+00    0.5460219454398482E-02    0.5906977080884431E-09   -0.3418301457863704E-09   -0.7873909857458727E-12   -0.5652414300505448E-12    0.3400566286893003E-10
 -0.4989   0.4830    0.3092400154153888E-01   -0.4113877388023052E-04    0.3987672108502833E-05   -0.4425767552651441E+00    0.4126767203237273E-01    0.2153574228726271E-07   -0.3436474412324420E-09   -0.7753433312052138E-12   -0.5561731630798761E-12    0.6128036186131558E-10
 -0.4989   0.4735    0.3504952229363631E-01   -0.1308260616498155E-03    0.5989162566524869E-05   -0.4107384741643710E+00    0.1225593839380431E+00    0.6996010896098619E-07   -0.3454152606302552E-09   -0.7364240510801534E-12   -0.5771112754349161E-12    0.9820145911720868E-10
 -0.4989   0.4619    0.3947021475864564E-01   -0.2701089226185466E-03    0.6839441278291647E-05   -0.3723721943097965E+00    0.2487952701225157E+00    0.1452687503943141E-06   -0.3473921254826262E-09   -0.6938373486864435E-12   -0.5592436236323550E-12    0.1483654674810930E-09
 -0.4989   0.4484    0.4381497488415914E-01   -0.4382972716077448E-03    0.6408779231517142E-05   -0.3278842948892738E+00    0.4015309899729705E+00    0.2360928645104851E-06   -0.3500750227897198E-09   -0.6158615284412861E-12   -0.5917384637843526E-12    0.2165331837444828E-09
 -0.4989   0.4330    0.4772376312669950E-01   -0.5997708114146325E-03    0.4753775479692830E-05   -0.2778142104771192E+00    0.5482484734524501E+00    0.3233243026529725E-06   -0.3539545670450117E-09   -0.4048983370807946E-12   -0.5948470882533030E-12    0.3105144995296794E-09
 -0.4989   0.4157    0.5088256448501722E-01   -0.7123189066686359E-03    0.2220797298264094E-05   -0.2229199072667647E+00    0.6502002873004227E+00    0.3841552078854217E-06   -0.3596477135200948E-09    0.1004613059407689E-12   -0.6013523012882160E-12    0.4387598201427423E-09
 -0.4989   0.3967    0.5304485303898177E-01   -0.7375061265019885E-03   -0.7515936575284274E-06   -0.1643429682393090E+00    0.6718314058081093E+00    0.3980146214476705E-06   -0.3677784938573014E-09    0.1081371103772710E-11   -0.5758223758922654E-12    0.6073672953466058E-09
 -0.4989   0.3759    0.5403512101474655E-01   -0.6501291978580860E-03   -0.3660725958340668E-05   -0.1038233689615041E+00    0.5896244326004709E+00    0.3513474069051577E-06   -0.3790838476458447E-09    0.2650393793324213E-11   -0.6105775607334607E-12    0.8137124793416994E-09
 -0.4989   0.3536    0.5374237156470467E-01   -0.4424570340042487E-03   -0.6170943197680764E-05   -0.4384937357766230E-01    0.3960308833199051E+00    0.2401261641666133E-06   -0.3943164024466927E-09    0.4819103449626994E-11   -0.5967205896073580E-12    0.1035927649217783E-08
 -0.4989   0.3297    0.5211829690298949E-01   -0.1209512894527472E-03   -0.8153025386714972E-05    0.1244881983247932E-01    0.9666417153736449E-01    0.6784584806812682E-07   -0.4139249810963808E-09    0.7509215471657171E-11   -0.5871553243608219E-12    0.1228245866125022E-08
 -0.4989   0.3044    0.4919118376264217E-01    0.3025105549258525E-03   -0.9720238067736540E-05    0.6182283595984988E-01   -0.2977168126228543E+00   -0.1590350665680038E-06   -0.4371589513996188E-09    0.1062250287731104E-10   -0.5506359257445581E-12    0.1325579729316573E-08
 -0.4989   0.2778    0.4508633592356643E-01    0.8191344454644109E-03   -0.1106374411603027E-04    0.1017810761432716E+00   -0.7789744567580086E+00   -0.4358272015990435E-06   -0.4614188163498678E-09    0.1408749505937834E-10   -0.4921341112407163E-12    0.1265710557196709E-08
 -0.4989   0.2500    0.4003141772085024E-01    0.1426720240630298E-02   -0.1235979001776284E-04    0.1314157305823888E+00   -0.1344915700670819E+01   -0.7613501214008297E-06   -0.4822962723638469E-09    0.1784723757669582E-10   -0.4157577060404094E-12    0.1018552284182128E-08
 -0.4989   0.2211    0.3433557463474947E-01    0.2127621750205186E-02   -0.1366675740292959E-04    0.1516627240895540E+00   -0.1997428309522115E+01   -0.1136947684271858E-05   -0.4946415638196200E-09    0.2185502473439627E-10   -0.3311240170944529E-12    0.6049102121985506E-09
 -0.4989   0.1913    0.2835568193305675E-01    0.2923502002922125E-02   -0.1494078598722132E-04    0.1647960906850847E+00   -0.2737672530254039E+01   -0.1563562551204428E-05   -0.4938929959452665E-09    0.2604295251673605E-10   -0.2171457458288728E-12    0.8819154434513976E-10
 -0.4989   0.1607    0.2246954038773366E-01    0.3809208633651840E-02   -0.1603007357319568E-04    0.1734881720488664E+00   -0.3560416740272700E+01   -0.2038536005910910E-05   -0.4768807779220730E-09    0.3030060924391620E-10   -0.1011829509067752E-12   -0.4534707158387885E-09
 -0.4989   0.1294    0.1706091025259486E-01    0.4767839380367240E-02   -0.1674098355934696E-04    0.1800038562484506E+00   -0.4449551205350303E+01   -0.2552864942676409E-05   -0.4419494874230434E-09    0.3435710396737512E-10   -0.5717648576819556E-14   -0.9557526280817852E-09
 -0.4989   0.0975    0.1250571454283307E-01    0.5768809862802833E-02   -0.1687683557137165E-04    0.1858629738493805E+00   -0.5376373237567946E+01   -0.3090219175996466E-05   -0.3889141231283588E-09    0.3779929147462724E-10    0.1261768467486490E-12   -0.1381660136344845E-08
 -0.4989   0.0653    0.9148928313294140E-02    0.6769530970998780E-02   -0.1630016025234523E-04    0.1919135932444055E+00   -0.6301224589969713E+01   -0.3627765467050048E-05   -0.3189205496911818E-09    0.4017931820587961E-10    0.2266659082650335E-12   -0.1719413721210789E-08
 -0.4989   0.0327    0.7270810729897202E-02    0.7719551513289018E-02   -0.1493361988709099E-04    0.1985700334927820E+00   -0.7177357137518968E+01   -0.4138438003661433E-05   -0.2344160768275039E-09    0.4108641205036179E-10    0.3088918010263342E-12   -0.1972087776067055E-08
 -0.4989   0.0000    0.7049081527406372E-02    0.8565389852658799E-02   -0.1276468093208895E-04    0.2060248633862078E+00   -0.7955418661442843E+01   -0.4593484697910289E-05   -0.1390303636106260E-09    0.4031489031497415E-10    0.3477218513125990E-12   -0.2149679562829521E-08
 -0.4989  -0.0327    0.8525213868981280E-02    0.9254785369661617E-02   -0.9817508701375138E-05    0.2143741908973967E+00   -0.8587369590530537E+01   -0.4964791536331431E-05   -0.3726449010477140E-10    0.3785405322531687E-10    0.3657837921444695E-12   -0.2262749908450712E-08
 -0.4989  -0.0653    0.1158095929806128E-01    0.9740183988014180E-02   -0.6154656766737156E-05    0.2236734629332286E+00   -0.9029686384876261E+01   -0.5226726726866865E-05    0.6591131286592944E-10    0.3389627467598189E-10    0.3094469125386468E-12   -0.2321274465179324E-08
 -0.4989  -0.0975    0.1592908350869184E-01    0.9982021197712609E-02   -0.1875080367449863E-05    0.2339562540965031E+00   -0.9246365231689582E+01   -0.5357935268602943E-05    0.1655824136657935E-09    0.2877986737814808E-10    0.2326619799597474E-12   -0.2333555389720521E-08
 -0.4989  -0.1294    0.2112222555931910E-01    0.9952553774637191E-02    0.2858585398233626E-05    0.2452377860123043E+00   -0.9212413116002272E+01   -0.5343388090925798E-05    0.2575146771169323E-09    0.2293099043981783E-10    0.9393701094762008E-13   -0.2305857317586035E-08
 -0.4989  -0.1607    0.2658443145038194E-01    0.9640423642732314E-02    0.7805680869573128E-05    0.2575134072980552E+00   -0.8917992393578947E+01   -0.5176859821098312E-05    0.3385095832114660E-09    0.1682348704790115E-10   -0.7051997874540916E-13   -0.2244031790249457E-08
 -0.4989  -0.1913    0.3166842808955612E-01    0.9055214482199928E-02    0.1263718975810299E-04    0.2707561311220525E+00   -0.8372519178189187E+01   -0.4863392403943521E-05    0.4067524372874942E-09    0.1094235813070554E-10   -0.2256944631184865E-12   -0.2152736287841517E-08
 -0.4989  -0.2211    0.3573596337240875E-01    0.8230308411742361E-02    0.1696470813478153E-04    0.2849148678253005E+00   -0.7607196285056058E+01   -0.4420848367515713E-05    0.4619499088809320E-09    0.5774158928772977E-11   -0.4198030811863873E-12   -0.2037185345762915E-08
 -0.4989  -0.2500    0.3824899998877067E-01    0.7222086712598004E-02    0.2039725428745904E-04    0.2999139424585138E+00   -0.6674179468018904E+01   -0.3879508720150714E-05    0.5053978485713984E-09    0.1696809359685858E-11   -0.5978967321240702E-12   -0.1900802112930755E-08
 -0.4989  -0.2778    0.3885088483781859E-01    0.6104233332099671E-02    0.2262346702397754E-04    0.3156537079596732E+00   -0.5641316923494391E+01   -0.3278994580927685E-05    0.5394007809855772E-09   -0.1095290524943948E-11   -0.7449874050990957E-12   -0.1748460078110359E-08
 -0.4989  -0.3044    0.3741459093153999E-01    0.4957654571453167E-02    0.2348613617364037E-04    0.3320112933255655E+00   -0.4582897513806073E+01   -0.2662866988410544E-05    0.5667328412117811E-09   -0.2577993374330845E-11   -0.8709422072428197E-12   -0.1584110882399403E-08
 -0.4989  -0.3297    0.3404394140391771E-01    0.3858420950980803E-02    0.2301674834880347E-04    0.3488400080268344E+00   -0.3568674275963711E+01   -0.2072080429033641E-05    0.5899355587368760E-09   -0.2913197461040795E-11   -0.9414136137309015E-12   -0.1412415700022263E-08
 -0.4989  -0.3536    0.2902978273306441E-01    0.2867199638939193E-02    0.2142156774398358E-04    0.3659661480639340E+00   -0.2654224764422775E+01   -0.1539331960966576E-05    0.6107947342348652E-09   -0.2412736677115390E-11   -0.1016478567983370E-11   -0.1237797460015844E-08
 -0.4989  -0.3759    0.2277880713390033E-01    0.2023056883014768E-02    0.1901102817601924E-04    0.3831832861105104E+00   -0.1875353175549272E+01   -0.1085643413614130E-05    0.6301327237778764E-09   -0.1438890673277626E-11   -0.1033395591321096E-11   -0.1064657851462814E-08
 -0.4989  -0.3967    0.1573882301089498E-01    0.1342713753634268E-02    0.1612518021669535E-04    0.4002463783372296E+00   -0.1247384328124161E+01   -0.7200465254688460E-06    0.6480630337923898E-09   -0.3306591112028912E-12   -0.1049160758270773E-11   -0.8966634396784245E-09
 -0.4989  -0.4157    0.8340136669231842E-02    0.8242557114027866E-03    0.1304913972291157E-04    0.4168701036841417E+00   -0.7685894140383420E+00   -0.4414735664063166E-06    0.6641651568994877E-09    0.6504848742983071E-12   -0.1042499420123022E-11   -0.7374973583218480E-09
 -0.4989  -0.4330    0.9612378562829271E-03    0.4530767827104893E-03    0.9991350257209615E-05    0.4327361466568411E+00   -0.4255410727224949E+00   -0.2421054949584476E-06    0.6779934530465326E-09    0.1361018936441027E-11   -0.1026831397687999E-11   -0.5896269184707537E-09
 -0.4989  -0.4484   -0.6082956790179261E-02    0.2076929258844825E-03    0.7061790635763127E-05    0.4475115680969134E+00   -0.1984742344243857E+00   -0.1103344438317153E-06    0.6891972149231096E-09    0.1757208961672418E-11   -0.1013134021121687E-11   -0.4554168726161878E-09
 -0.4989  -0.4619   -0.1253909854057325E-01    0.6381068253314953E-04    0.4343985676683270E-05    0.4608756280707155E+00   -0.6489929567847565E-01   -0.3318274867597710E-07    0.6978127641693588E-09    0.1878375927022446E-11   -0.9982258075691419E-12   -0.3371186853978747E-09
 -0.4989  -0.4735   -0.1820865672883485E-01   -0.3831312760875094E-05    0.1920136459473062E-05    0.4725478496917632E+00   -0.1411333149385492E-02    0.2992324707944147E-08    0.7040908962634151E-09    0.1810263744461693E-11   -0.9892659608157217E-12   -0.2354664891887626E-09
 -0.4989  -0.4830   -0.2294481094079880E-01   -0.2113599310662343E-04    0.2428048281644162E-07    0.4823085262254379E+00    0.1609047771259622E-01    0.1196647461964617E-07    0.7087395193704172E-09    0.1658489318101530E-11   -0.9916500129728001E-12   -0.1512560931539453E-09
 -0.4989  -0.4904   -0.2665442030886564E-01   -0.1378145215289856E-04   -0.1056605017154537E-05    0.4900055349777903E+00    0.1117620461593433E-01    0.7726958798875028E-08    0.7124619802543336E-09    0.1492131071478831E-11   -0.9462513238245318E-12   -0.8535617395180606E-10
 -0.4989  -0.4957   -0.2930140894891119E-01   -0.3501106156618140E-05   -0.9894655771850566E-06    0.4955470418154783E+00    0.3427193281103910E-02    0.1825647842010159E-08    0.7167106103479065E-09    0.1316880740738491E-11   -0.9896996416847159E-12   -0.3794701922479882E-10
 -0.4989  -0.4989   -0.3089147031579039E-01   -0.6755346182371271E-07   -0.6785729851471345E-07    0.4988853914983035E+00    0.4464630592379140E-03    0.6108146556968931E-10    0.7212842239711498E-09    0.6792284833537221E-12   -0.6912142299503321E-12   -0.9713128603294416E-11
 -0.4989  -0.5000   -0.3142451434259205E-01    0.0000000000000000E+00    0.0000000000000000E+00    0.5000000000000000E+00   -0.1588387412638724E-03    0.0000000000000000E+00    0.0000000000000000E+00    0.0000000000000000E+00    0.0000000000000000E+00    0.0000000000000000E+00
 -0.4957   0.5000    0.2269621292212073E-01    0.0000000000000000E+00    0.0000000000000000E+00   -0.5000000000000000E+00   -0.4684171086119480E-02    0.0000000000000000E+00    0.0000000000000000E+00    0.0000000000000000E+00    0.0000000000000000E+00    0.0000000000000000E+00
 -0.4957   0.4989    0.2322861660201610E-01    0.4490214908476672E-06   -0.3307993709209696E-05   -0.4963853674356005E+00   -0.1434083180485379E-02   -0.2019552716213217E-08   -0.3393649401208995E-09   -0.5665753781934624E-12   -0.7399933530521929E-12    0.3628567390133453E-11
 -0.4957   0.4957    0.2481433288253562E-01   -0.8418325838514512E-06    0.8437931967676242E-06   -0.4855583225524264E+00    0.6816988827605171E-02   -0.1021908491905197E-07   -0.3403536770994753E-09   -0.1734196553720979E-11   -0.1766561723293147E-11    0.1504183886821830E-10
 -0.4957   0.4904    0.2740494844492150E-01   -0.3882498885693180E-04    0.2584380671305933E-04   -0.4675772582407702E+00    0.2141180000283778E-01    0.5696130634734784E-07   -0.3420038315049556E-09   -0.2469634739765691E-11   -0.2110672747690501E-11    0.3403077038915958E-10
 -0.4957   0.4830    0.3087089582555769E-01   -0.1909343108383972E-03    0.6103035302885665E-04   -0.4425624417962435E+00    0.5514274201117900E-01    0.3850850756274332E-06   -0.3437039403086928E-09   -0.2725156038330123E-11   -0.2217469263765537E-11    0.6127777799069811E-10
 -0.4957   0.4735    0.3497191388454588E-01   -0.5220048980893463E-03    0.9023012987802769E-04   -0.4107182565416491E+00    0.1229312748837385E+00    0.1118150430271164E-05   -0.3454141278558254E-09   -0.2748945602398800E-11   -0.2239805563242214E-11    0.9836505221461067E-10
 -0.4957   0.4619    0.3938082870759042E-01   -0.1033644198870068E-02    0.1034018074505734E-03   -0.3723460915457109E+00    0.2275580299533124E+00    0.2254305524224793E-05   -0.3473856063918035E-09   -0.2686375427662924E-11   -0.2276481086971316E-11    0.1484249650268721E-09
 -0.4957   0.4484    0.4373088955907344E-01   -0.1652960769516479E-02    0.9694480587999881E-04   -0.3278516167837945E+00    0.3551822677898246E+00    0.3628263062873056E-05   -0.3500167725101200E-09   -0.2443691082820720E-11   -0.2321781655822974E-11    0.2166688078952816E-09
 -0.4957   0.4330    0.4766150129961230E-01   -0.2247691536139010E-02    0.7186939661164234E-04   -0.2777726298043775E+00    0.4780193070076162E+00    0.4947855807302331E-05   -0.3538084894505467E-09   -0.1666639048991669E-11   -0.2442084728881966E-11    0.3105364299038627E-09