 title="result"
 variables="x","y","P","u","v","t","omega","psi","RES1","RES2","RES3","RES4"
zone,j= 49,i= 49,f=point
 -0.4328   0.5592    0.2449224684513386E-01    0.0000000000000000E+00    0.0000000000000000E+00   -0.5000000000000000E+00    0.0000000000000000E+00    0.0000000000000000E+00    0.0000000000000000E+00    0.0000000000000000E+00    0.0000000000000000E+00    0.0000000000000000E+00
 -0.4329   0.5582    0.2501906188881765E-01    0.0000000000000000E+00    0.0000000000000000E+00   -0.4959638121120931E+00   -0.2002282470274516E-03    0.0000000000000000E+00    0.0000000000000000E+00    0.0000000000000000E+00    0.0000000000000000E+00    0.0000000000000000E+00
 -0.4333   0.5550    0.2658242252803898E-01    0.0000000000000000E+00    0.0000000000000000E+00   -0.4838742700157895E+00   -0.4290871090233065E-02    0.0000000000000000E+00    0.0000000000000000E+00    0.0000000000000000E+00    0.0000000000000000E+00    0.0000000000000000E+00
 -0.4340   0.5497    0.2913259130832616E-01    0.0000000000000000E+00    0.0000000000000000E+00   -0.4637986633952051E+00   -0.9206634337269164E-02    0.0000000000000000E+00    0.0000000000000000E+00    0.0000000000000000E+00    0.0000000000000000E+00    0.0000000000000000E+00
 -0.4349   0.5423    0.3254556649944206E-01    0.0000000000000000E+00    0.0000000000000000E+00   -0.4358817739471130E+00   -0.1472413485531619E-02    0.0000000000000000E+00    0.0000000000000000E+00    0.0000000000000000E+00    0.0000000000000000E+00    0.0000000000000000E+00
 -0.4361   0.5329    0.3659469908978093E-01    0.0000000000000000E+00    0.0000000000000000E+00   -0.4003884809477167E+00    0.3007239648393419E-01    0.0000000000000000E+00    0.0000000000000000E+00    0.0000000000000000E+00    0.0000000000000000E+00    0.0000000000000000E+00
 -0.4376   0.5215    0.4097727792958508E-01    0.0000000000000000E+00    0.0000000000000000E+00   -0.3577524494735778E+00    0.8694086682518042E-01    0.0000000000000000E+00    0.0000000000000000E+00    0.0000000000000000E+00    0.0000000000000000E+00    0.0000000000000000E+00
 -0.4393   0.5081    0.4534483431071391E-01    0.0000000000000000E+00    0.0000000000000000E+00   -0.3086303624254818E+00    0.1600144422634639E+00    0.0000000000000000E+00    0.0000000000000000E+00    0.0000000000000000E+00    0.0000000000000000E+00    0.0000000000000000E+00
 -0.4412   0.4928    0.4933558901274252E-01    0.0000000000000000E+00    0.0000000000000000E+00   -0.2539707583009778E+00    0.2313276957910188E+00    0.0000000000000000E+00    0.0000000000000000E+00    0.0000000000000000E+00    0.0000000000000000E+00    0.0000000000000000E+00
 -0.4434   0.4756    0.5260489778399393E-01    0.0000000000000000E+00    0.0000000000000000E+00   -0.1951055425715441E+00    0.2775682972822552E+00    0.0000000000000000E+00    0.0000000000000000E+00    0.0000000000000000E+00    0.0000000000000000E+00    0.0000000000000000E+00
 -0.4458   0.4567    0.5485481763755666E-01    0.0000000000000000E+00    0.0000000000000000E+00   -0.1338511513967718E+00    0.2743264734667000E+00    0.0000000000000000E+00    0.0000000000000000E+00    0.0000000000000000E+00    0.0000000000000000E+00    0.0000000000000000E+00
 -0.4484   0.4361    0.5585953292433445E-01    0.0000000000000000E+00    0.0000000000000000E+00   -0.7256659917751695E-01    0.2006190999490247E+00    0.0000000000000000E+00    0.0000000000000000E+00    0.0000000000000000E+00    0.0000000000000000E+00    0.0000000000000000E+00
 -0.4513   0.4139    0.5548463149737208E-01    0.0000000000000000E+00    0.0000000000000000E+00   -0.1407394318188576E-01    0.4233320101856673E-01    0.0000000000000000E+00    0.0000000000000000E+00    0.0000000000000000E+00    0.0000000000000000E+00    0.0000000000000000E+00
 -0.4543   0.3903    0.5369788067145130E-01    0.0000000000000000E+00    0.0000000000000000E+00    0.3865864594483431E-01   -0.2069547178089636E+00    0.0000000000000000E+00    0.0000000000000000E+00    0.0000000000000000E+00    0.0000000000000000E+00    0.0000000000000000E+00
 -0.4575   0.3652    0.5057194742189575E-01    0.0000000000000000E+00    0.0000000000000000E+00    0.8308858600628152E-01   -0.5484696125770526E+00    0.0000000000000000E+00    0.0000000000000000E+00    0.0000000000000000E+00    0.0000000000000000E+00    0.0000000000000000E+00
 -0.4609   0.3388    0.4627798093974576E-01    0.0000000000000000E+00    0.0000000000000000E+00    0.1177639539655253E+00   -0.9824145966243074E+00    0.0000000000000000E+00    0.0000000000000000E+00    0.0000000000000000E+00    0.0000000000000000E+00    0.0000000000000000E+00
 -0.4644   0.3112    0.4106903039329900E-01    0.0000000000000000E+00    0.0000000000000000E+00    0.1427557494509727E+00   -0.1510887481832937E+01    0.0000000000000000E+00    0.0000000000000000E+00    0.0000000000000000E+00    0.0000000000000000E+00    0.0000000000000000E+00
 -0.4680   0.2826    0.3525545491527435E-01    0.0000000000000000E+00    0.0000000000000000E+00    0.1595696539413423E+00   -0.2137451331931498E+01    0.0000000000000000E+00    0.0000000000000000E+00    0.0000000000000000E+00    0.0000000000000000E+00    0.0000000000000000E+00
 -0.4718   0.2530    0.2918120201269874E-01    0.0000000000000000E+00    0.0000000000000000E+00    0.1705447101504426E+00   -0.2863601331319835E+01    0.0000000000000000E+00    0.0000000000000000E+00    0.0000000000000000E+00    0.0000000000000000E+00    0.0000000000000000E+00
 -0.4757   0.2227    0.2320847214983044E-01    0.0000000000000000E+00    0.0000000000000000E+00    0.1780738105279727E+00   -0.3683974649880882E+01    0.0000000000000000E+00    0.0000000000000000E+00    0.0000000000000000E+00    0.0000000000000000E+00    0.0000000000000000E+00
 -0.4796   0.1916    0.1770928249330400E-01    0.0000000000000000E+00    0.0000000000000000E+00    0.1840445875081234E+00   -0.4582567713256501E+01    0.0000000000000000E+00    0.0000000000000000E+00    0.0000000000000000E+00    0.0000000000000000E+00    0.0000000000000000E+00
 -0.4836   0.1600    0.1305434560943334E-01    0.0000000000000000E+00    0.0000000000000000E+00    0.1896710595230898E+00   -0.5531514383540237E+01    0.0000000000000000E+00    0.0000000000000000E+00    0.0000000000000000E+00    0.0000000000000000E+00    0.0000000000000000E+00
 -0.4877   0.1280    0.9591754154172911E-02    0.0000000000000000E+00    0.0000000000000000E+00    0.1956152783036282E+00   -0.6492689411366468E+01    0.0000000000000000E+00    0.0000000000000000E+00    0.0000000000000000E+00    0.0000000000000000E+00    0.0000000000000000E+00
 -0.4918   0.0957    0.7615445895884032E-02    0.0000000000000000E+00    0.0000000000000000E+00    0.2022001106208064E+00   -0.7421129753497230E+01    0.0000000000000000E+00    0.0000000000000000E+00    0.0000000000000000E+00    0.0000000000000000E+00    0.0000000000000000E+00
 -0.4960   0.0632    0.7329739751260970E-02    0.0000000000000000E+00    0.0000000000000000E+00    0.2095800895696091E+00   -0.8268851254358445E+01    0.0000000000000000E+00    0.0000000000000000E+00    0.0000000000000000E+00    0.0000000000000000E+00    0.0000000000000000E+00
 -0.5001   0.0308    0.8816822489660106E-02    0.0000000000000000E+00    0.0000000000000000E+00    0.2178374122562578E+00   -0.8988038646851367E+01    0.0000000000000000E+00    0.0000000000000000E+00    0.0000000000000000E+00    0.0000000000000000E+00    0.0000000000000000E+00
 -0.5042  -0.0015    0.1201186744100920E-01    0.0000000000000000E+00    0.0000000000000000E+00    0.2270230590027410E+00   -0.9533473703766793E+01    0.0000000000000000E+00    0.0000000000000000E+00    0.0000000000000000E+00    0.0000000000000000E+00    0.0000000000000000E+00
 -0.5083  -0.0335    0.1668833971179363E-01    0.0000000000000000E+00    0.0000000000000000E+00    0.2371697938964718E+00   -0.9864792129194296E+01    0.0000000000000000E+00    0.0000000000000000E+00    0.0000000000000000E+00    0.0000000000000000E+00    0.0000000000000000E+00
 -0.5124  -0.0651    0.2245672305377002E-01    0.0000000000000000E+00    0.0000000000000000E+00    0.2482937526511607E+00   -0.9949451024118421E+01    0.0000000000000000E+00    0.0000000000000000E+00    0.0000000000000000E+00    0.0000000000000000E+00    0.0000000000000000E+00
 -0.5163  -0.0962    0.2878178808032794E-01    0.0000000000000000E+00    0.0000000000000000E+00    0.2603922369390027E+00   -0.9766921096142759E+01    0.0000000000000000E+00    0.0000000000000000E+00    0.0000000000000000E+00    0.0000000000000000E+00    0.0000000000000000E+00
 -0.5202  -0.1266    0.3502444865903825E-01    0.0000000000000000E+00    0.0000000000000000E+00    0.2734407892711338E+00   -0.9313785264965714E+01    0.0000000000000000E+00    0.0000000000000000E+00    0.0000000000000000E+00    0.0000000000000000E+00    0.0000000000000000E+00
 -0.5240  -0.1561    0.4051063959281553E-01    0.0000000000000000E+00    0.0000000000000000E+00    0.2873909084355710E+00   -0.8608355126658639E+01    0.0000000000000000E+00    0.0000000000000000E+00    0.0000000000000000E+00    0.0000000000000000E+00    0.0000000000000000E+00
 -0.5276  -0.1848    0.4462104843158764E-01    0.0000000000000000E+00    0.0000000000000000E+00    0.3021690616764543E+00   -0.7692702932748453E+01    0.0000000000000000E+00    0.0000000000000000E+00    0.0000000000000000E+00    0.0000000000000000E+00    0.0000000000000000E+00
 -0.5311  -0.2123    0.4688418773405790E-01    0.0000000000000000E+00    0.0000000000000000E+00    0.3176770498575579E+00   -0.6630141350970983E+01    0.0000000000000000E+00    0.0000000000000000E+00    0.0000000000000000E+00    0.0000000000000000E+00    0.0000000000000000E+00
 -0.5345  -0.2387    0.4704801020929820E-01    0.0000000000000000E+00    0.0000000000000000E+00    0.3337930535642255E+00   -0.5497523297961640E+01    0.0000000000000000E+00    0.0000000000000000E+00    0.0000000000000000E+00    0.0000000000000000E+00    0.0000000000000000E+00
 -0.5377  -0.2638    0.4510801218173154E-01    0.0000000000000000E+00    0.0000000000000000E+00    0.3503720225475447E+00   -0.4373805657292072E+01    0.0000000000000000E+00    0.0000000000000000E+00    0.0000000000000000E+00    0.0000000000000000E+00    0.0000000000000000E+00
 -0.5407  -0.2875    0.4128397694045906E-01    0.0000000000000000E+00    0.0000000000000000E+00    0.3672439336107364E+00   -0.3328102436491359E+01    0.0000000000000000E+00    0.0000000000000000E+00    0.0000000000000000E+00    0.0000000000000000E+00    0.0000000000000000E+00
 -0.5435  -0.3097    0.3595615777965466E-01    0.0000000000000000E+00    0.0000000000000000E+00    0.3842093221172126E+00   -0.2410785729202341E+01    0.0000000000000000E+00    0.0000000000000000E+00    0.0000000000000000E+00    0.0000000000000000E+00    0.0000000000000000E+00
 -0.5462  -0.3303    0.2958471195520507E-01    0.0000000000000000E+00    0.0000000000000000E+00    0.4010334858478453E+00   -0.1649858936593451E+01    0.0000000000000000E+00    0.0000000000000000E+00    0.0000000000000000E+00    0.0000000000000000E+00    0.0000000000000000E+00
 -0.5486  -0.3492    0.2263712154284390E-01    0.0000000000000000E+00    0.0000000000000000E+00    0.4174431348180929E+00   -0.1052622701601271E+01    0.0000000000000000E+00    0.0000000000000000E+00    0.0000000000000000E+00    0.0000000000000000E+00    0.0000000000000000E+00
 -0.5507  -0.3663    0.1553901932142034E-01    0.0000000000000000E+00    0.0000000000000000E+00    0.4331304707824433E+00   -0.6108031034148279E+00    0.0000000000000000E+00    0.0000000000000000E+00    0.0000000000000000E+00    0.0000000000000000E+00    0.0000000000000000E+00
 -0.5527  -0.3816    0.8651409005478993E-02    0.0000000000000000E+00    0.0000000000000000E+00    0.4477681906774384E+00   -0.3066190482237180E+00    0.0000000000000000E+00    0.0000000000000000E+00    0.0000000000000000E+00    0.0000000000000000E+00    0.0000000000000000E+00
 -0.5544  -0.3950    0.2267594258838926E-02    0.0000000000000000E+00    0.0000000000000000E+00    0.4610345503462801E+00   -0.1175808878073110E+00    0.0000000000000000E+00    0.0000000000000000E+00    0.0000000000000000E+00    0.0000000000000000E+00    0.0000000000000000E+00
 -0.5559  -0.4064   -0.3380740055741612E-02    0.0000000000000000E+00    0.0000000000000000E+00    0.4726423166100232E+00   -0.1899214453781036E-01    0.0000000000000000E+00    0.0000000000000000E+00    0.0000000000000000E+00    0.0000000000000000E+00    0.0000000000000000E+00
 -0.5571  -0.4159   -0.8118984865986051E-02    0.0000000000000000E+00    0.0000000000000000E+00    0.4823623309413351E+00    0.1569695805741969E-01    0.0000000000000000E+00    0.0000000000000000E+00    0.0000000000000000E+00    0.0000000000000000E+00    0.0000000000000000E+00
 -0.5580  -0.4232   -0.1183172149651867E-01    0.0000000000000000E+00    0.0000000000000000E+00    0.4900338244882062E+00    0.1447070432026580E-01    0.0000000000000000E+00    0.0000000000000000E+00    0.0000000000000000E+00    0.0000000000000000E+00    0.0000000000000000E+00
 -0.5587  -0.4285   -0.1446965710118674E-01    0.0000000000000000E+00    0.0000000000000000E+00    0.4955592763427660E+00    0.3948023140024257E-02    0.0000000000000000E+00    0.0000000000000000E+00    0.0000000000000000E+00    0.0000000000000000E+00    0.0000000000000000E+00
 -0.5591  -0.4317   -0.1604632035966620E-01    0.0000000000000000E+00    0.0000000000000000E+00    0.4988884320291191E+00   -0.1268589379183397E-03    0.0000000000000000E+00    0.0000000000000000E+00    0.0000000000000000E+00    0.0000000000000000E+00    0.0000000000000000E+00
 -0.5592  -0.4328   -0.1657449872673119E-01    0.0000000000000000E+00    0.0000000000000000E+00    0.5000000000000000E+00    0.0000000000000000E+00    0.0000000000000000E+00    0.0000000000000000E+00    0.0000000000000000E+00    0.0000000000000000E+00    0.0000000000000000E+00
 -0.4317   0.5591    0.2456195189786271E-01    0.0000000000000000E+00    0.0000000000000000E+00   -0.5000000000000000E+00   -0.2003816087830968E-03    0.0000000000000000E+00    0.0000000000000000E+00    0.0000000000000000E+00    0.0000000000000000E+00    0.0000000000000000E+00
 -0.4318   0.5580    0.2508849484323647E-01    0.2668650245473465E-06   -0.2669616925564652E-06   -0.4959637249305791E+00   -0.5361862661770072E-03   -0.1853449507011239E-09   -0.7304877431028520E-09   -0.3599695614828723E-12   -0.3622900590638523E-12    0.7375271508965053E-11
 -0.4322   0.5548    0.2665072244380412E-01    0.3708300083919617E-05   -0.7634275532133324E-06   -0.4838739220652289E+00   -0.2692388746483761E-02   -0.2100595347179313E-08   -0.7330572932527646E-09   -0.7135312306283392E-12   -0.5211586370790222E-12    0.3153923736759490E-10
 -0.4329   0.5496    0.2919541114429478E-01    0.7519719006435911E-05   -0.2920850350655685E-07   -0.4637978893468334E+00   -0.4786396635879696E-02   -0.4461085562919572E-08   -0.7358228159946726E-09   -0.7405968199813984E-12   -0.5360524849527815E-12    0.7097896836255613E-10
 -0.4338   0.5422    0.3259845475214172E-01   -0.1180147155817432E-05    0.1234435807930150E-05   -0.4358804340997365E+00    0.3684339217127862E-02    0.1733537557163577E-09   -0.7386295524866582E-09   -0.5278277814824150E-12   -0.5403906488954391E-12    0.1263972572440597E-09
 -0.4350   0.5328    0.3663718598704696E-01   -0.3400569411905483E-04    0.2394072670621024E-05   -0.4003864653443908E+00    0.3346201497207042E-01    0.1787222438053469E-07   -0.7417701201536953E-09    0.1831260837414916E-13   -0.5375075384783656E-12    0.1978076105690896E-09
 -0.4365   0.5213    0.4101093400644349E-01   -0.9286795313686818E-04    0.3009191972031903E-05   -0.3577496553781561E+00    0.8652605683884013E-01    0.4976272538849437E-07   -0.7450065096087366E-09    0.9213998921481226E-12   -0.5599860852800731E-12    0.2862816789184208E-09
 -0.4382   0.5079    0.4537226238824284E-01   -0.1684247530080618E-03    0.2930829180574622E-05   -0.3086266595736634E+00    0.1546008163560881E+00    0.9065781190066832E-07   -0.7482399031963349E-09    0.2128497031406162E-11   -0.5921461238012071E-12    0.3917208918347015E-09
 -0.4402   0.4926    0.4935949848275818E-01   -0.2418907404577583E-03    0.2139590496790518E-05   -0.2539659684203351E+00    0.2205200936949180E+00    0.1305099804625466E-06   -0.7514927551771633E-09    0.3552162036735140E-11   -0.5748197057231508E-12    0.5127341884403336E-09
 -0.4423   0.4755    0.5262770305945254E-01   -0.2887008691900087E-03    0.7535300330781944E-06   -0.1950994583792661E+00    0.2617302817402651E+00    0.1560310750268762E-06   -0.7550500168672369E-09    0.5112348044900017E-11   -0.5644764169976391E-12    0.6450131331825482E-09
 -0.4448   0.4566    0.5487825234399162E-01   -0.2830280597430302E-03   -0.1054901680828406E-05   -0.1338436097739247E+00    0.2543697546088841E+00    0.1533983170212176E-06   -0.7592623166470525E-09    0.6751002534777228E-11   -0.5563223492988101E-12    0.7773388460696751E-09
 -0.4474   0.4360    0.5588457649090416E-01   -0.2025736432264170E-03   -0.3055130869383129E-05   -0.7255760517853251E-01    0.1777777895614784E+00    0.1106003299963612E-06   -0.7643861559339382E-09    0.8435536991147075E-11   -0.5348985143704965E-12    0.8885588723139826E-09
 -0.4502   0.4138    0.5551158664602916E-01   -0.3223847692197134E-04   -0.5043483006356629E-05   -0.1406380871937185E-01    0.1784497863494403E-01    0.1959124704600551E-07   -0.7701052139735820E-09    0.1013596845345077E-10   -0.5021989768483337E-12    0.9453966220984711E-09
 -0.4532   0.3901    0.5372680919845986E-01    0.2349643514157642E-03   -0.6881352925064466E-05    0.3866922966153725E-01   -0.2320502899433509E+00   -0.1233813795326685E-06   -0.7751952135759410E-09    0.1181576364528425E-10   -0.4857850233186412E-12    0.9054270666553066E-09
 -0.4564   0.3650    0.5060312638493724E-01    0.6004712701846795E-03   -0.8551001641022106E-05    0.8309863995029904E-01   -0.5733763865998034E+00   -0.3190375452630750E-06   -0.7770949647656344E-09    0.1342717603769472E-10   -0.4209133042110125E-12    0.7283873088015369E-09
 -0.4598   0.3387    0.4631220981859054E-01    0.1064528797538025E-02   -0.1011263775642390E-04    0.1177724926517956E+00   -0.1006385221256352E+01   -0.5675266519517861E-06   -0.7720787828513487E-09    0.1491487489069243E-10   -0.3382086277703422E-12    0.3941573525900743E-09
 -0.4633   0.3111    0.4110747223803511E-01    0.1629250662905775E-02   -0.1164828925516599E-04    0.1427621293382758E+00   -0.1532932970070060E+01   -0.8699845383392913E-06   -0.7558757023073959E-09    0.1621829059939017E-10   -0.2441033486455524E-12   -0.8227808712124585E-10
 -0.4670   0.2825    0.3529919524786736E-01    0.2298164559292781E-02   -0.1317907459362615E-04    0.1595737748318692E+00   -0.2156042081722553E+01   -0.1228366357808521E-05   -0.7248831951356394E-09    0.1726188636475001E-10   -0.1553132622511555E-12   -0.6496216550799794E-09
 -0.4707   0.2529    0.2923067943899233E-01    0.3072484020640347E-02   -0.1464322612138214E-04    0.1705469460323225E+00   -0.2876486752138381E+01   -0.1643377290874710E-05   -0.6769996507838272E-09    0.1795255610836932E-10   -0.4143907439413397E-13   -0.1237025743991427E-08
 -0.4746   0.2225    0.2326310824040004E-01    0.3946069414797385E-02   -0.1589673249643810E-04    0.1780747489905898E+00   -0.3688156362772844E+01   -0.2111812900300017E-05   -0.6121656341562254E-09    0.1811899068282496E-10    0.9210687768046455E-13   -0.1778798951884708E-08
 -0.4786   0.1915    0.1776734809218521E-01    0.4901480272741265E-02   -0.1676211498537914E-04    0.1840447704114729E+00   -0.4574473470777976E+01   -0.2624384034231907E-05   -0.5321394019874859E-09    0.1751832706675671E-10    0.1966204976611152E-12   -0.2231285375973828E-08
 -0.4826   0.1599    0.1311312893563246E-01    0.5908758642129250E-02   -0.1707004081542311E-04    0.1896708553545653E+00   -0.5507335316990932E+01   -0.3165084537463202E-05   -0.4401885661531324E-09    0.1584558873002351E-10    0.3100436574143828E-12   -0.2578077357932168E-08
 -0.4867   0.1278    0.9647847762027680E-02    0.6927196977485991E-02   -0.1670029830339754E-04    0.1956148840524360E+00   -0.6448817799863497E+01   -0.3712100932310451E-05   -0.3408237685131876E-09    0.1285936634953799E-10    0.3618216837253385E-12   -0.2822971138967401E-08
 -0.4908   0.0955    0.7665087830538711E-02    0.7909008266479289E-02   -0.1558632741007647E-04    0.2021996106729598E+00   -0.7354607897112138E+01   -0.4239795619050286E-05   -0.2393997292071681E-09    0.8453959754461948E-11    0.4569539191479066E-12   -0.2979120314154649E-08
 -0.4949   0.0631    0.7369045343084826E-02    0.8803385224257027E-02   -0.1370932475666388E-04    0.2095795119953183E+00   -0.8177770654917845E+01   -0.4720871278954704E-05   -0.1416262974951454E-09    0.2767369666756281E-11    0.4721639745852713E-12   -0.3062275278839510E-08
 -0.4991   0.0307    0.8841950545196835E-02    0.9559877546177599E-02   -0.1107704499989211E-04    0.2178367626621246E+00   -0.8871870308985796E+01   -0.5128191726347323E-05   -0.5308289571792635E-10   -0.3825217920194746E-11    0.4601388714498000E-12   -0.3086601818753920E-08
 -0.5032  -0.0016    0.1201910038097539E-01    0.1013095332668647E-01   -0.7717397135832877E-05    0.2270223361082072E+00   -0.9393323763681886E+01   -0.5436160056917933E-05    0.2148979778848759E-10   -0.1081851275230861E-10    0.3688646610378044E-12   -0.3063626967565736E-08
 -0.5073  -0.0337    0.1667422678216712E-01    0.1047437618007334E-01   -0.3682281399203979E-05    0.2371689956002380E+00   -0.9703590699397456E+01   -0.5621991065124467E-05    0.7887773594006386E-10   -0.1758237999638368E-10    0.2851607838749715E-12   -0.3002008674632406E-08
 -0.5113  -0.0653    0.2241830276126469E-01    0.1055632119404163E-01    0.9275494593600434E-06    0.2482928782169145E+00   -0.9772019511508654E+01   -0.5667403827211908E-05    0.1178292281453497E-09   -0.2348188310463684E-10    0.1206387420515931E-12   -0.2908611324015098E-08
 -0.5152  -0.0963    0.2871699223927045E-01    0.1035575968953544E-01    0.5933855361455648E-05    0.2603912876517370E+00   -0.9579857115669252E+01   -0.5560966166560826E-05    0.1392927526794319E-09   -0.2791339381857938E-10   -0.6567663080048192E-13   -0.2789156291344019E-08
 -0.5191  -0.1267    0.3493257908224542E-01    0.9869762129150549E-02    0.1105824447611431E-04    0.2734397682365503E+00   -0.9125044520857610E+01   -0.5300989416436791E-05    0.1464388783845028E-09   -0.3040956375599535E-10   -0.2523051212399707E-12   -0.2647760182980519E-08
 -0.5229  -0.1563    0.4039285571477906E-01    0.9118258471929250E-02    0.1592723684587002E-04    0.2873898196436295E+00   -0.8426508925311531E+01   -0.4898072030613493E-05    0.1441731074802721E-09   -0.3071043419566877E-10   -0.4822947596849758E-12   -0.2488086658578026E-08
 -0.5265  -0.1849    0.4448060371185256E-01    0.8146063873126471E-02    0.2011608672963012E-04    0.3021679084876960E+00   -0.7525897494616169E+01   -0.4376256364620721E-05    0.1382647121794811E-09   -0.2882766247935820E-10   -0.6717126854738353E-12   -0.2313394418737569E-08
 -0.5301  -0.2125    0.4672631482661460E-01    0.7020140714009583E-02    0.2322682052454701E-04    0.3176758333881763E+00   -0.6485003985165958E+01   -0.3771514140386077E-05    0.1341617858474642E-09   -0.2508326879535616E-10   -0.8498618475627495E-12   -0.2126505995597716E-08
 -0.5334  -0.2388    0.4687931494360734E-01    0.5821473919898614E-02    0.2498180590584714E-04    0.3337917718483799E+00   -0.5378264427854227E+01   -0.3127443921477142E-05    0.1359868467831760E-09   -0.2003713861498113E-10   -0.9731104810839497E-12   -0.1930243813744181E-08
 -0.5366  -0.2639    0.4493557443915828E-01    0.4633089085360254E-02    0.2528949418139939E-04    0.3503706715712020E+00   -0.4281839162255954E+01   -0.2488730167824533E-05    0.1456397988319758E-09   -0.1444888653168164E-10   -0.1083744205487847E-11   -0.1727987853500368E-08
 -0.5396  -0.2876    0.4111433082297221E-01    0.3527578655990071E-02    0.2426368433277362E-04    0.3672425110587951E+00   -0.3262220417605649E+01   -0.1894506673878785E-05    0.1626846365954115E-09   -0.9030970415935258E-11   -0.1100342039705993E-11   -0.1522665831962811E-08
 -0.5425  -0.3098    0.3579454228585471E-01    0.2557829319718704E-02    0.2217364663212650E-04    0.3842078337377939E+00   -0.2367851235893902E+01   -0.1373232905459384E-05    0.1849518940777450E-09   -0.4387726293408889E-11   -0.1120020742817474E-11   -0.1318217209000938E-08
 -0.5451  -0.3304    0.2943468105015257E-01    0.1753253775255351E-02    0.1936703798575925E-04    0.4010319528385214E+00   -0.1625661689171436E+01   -0.9407943082610994E-06    0.2094135698182953E-09   -0.8609571389150972E-12   -0.1110070368959271E-11   -0.1117883610332604E-08
 -0.5475  -0.3493    0.2250065223779722E-01    0.1121534699372979E-02    0.1617178647672491E-04    0.4174415991660244E+00   -0.1042723041088975E+01   -0.6012774957019417E-06    0.2331490313312035E-09    0.1456685466694196E-11   -0.1097386070902928E-11   -0.9257760565095641E-09
 -0.5497  -0.3664    0.1541685994673316E-01    0.6539771634729563E-03    0.1284543132756238E-04    0.4331289950210516E+00   -0.6110429273319047E+00   -0.3500598743638346E-06    0.2539643807752956E-09    0.2673045704053301E-11   -0.1067979038538169E-11   -0.7448386594999246E-09
 -0.5516  -0.3817    0.8543590303533171E-02    0.3318256109201538E-03    0.9540564295093239E-05    0.4477668498154476E+00   -0.3133940888429862E+00   -0.1769780146726629E-06    0.2706016764830732E-09    0.3041367505063342E-11   -0.1039668351410228E-11   -0.5786250662637160E-09
 -0.5533  -0.3951    0.2173697556299740E-02    0.1312641429608420E-03    0.6357594557243657E-05    0.4610334166691559E+00   -0.1277344305934973E+00   -0.6933117326514564E-07    0.2828586843917069E-09    0.2856642006276999E-11   -0.1021460693806375E-11   -0.4302462969230092E-09
 -0.5548  -0.4066   -0.3461616478242341E-02    0.2600977570658036E-04    0.3392034462113470E-05    0.4726414415138014E+00   -0.2971016838413582E-01   -0.1290337643390088E-07    0.2911707741234948E-09    0.2418915762136820E-11   -0.1005227151518184E-11   -0.3012383441650113E-09
 -0.5560  -0.4160   -0.8188847770098541E-02   -0.1221693587422545E-04    0.8949656363891739E-06    0.4823617303132157E+00    0.7050496439682131E-02    0.7312290540150928E-08    0.2967059213338646E-09    0.1958853218519963E-11   -0.1019579386196678E-11   -0.1938497921211146E-09
 -0.5569  -0.4234   -0.1189472825187767E-01   -0.1309968119841511E-04   -0.7538696050295029E-06    0.4900334738706646E+00    0.9888905759974595E-02    0.7482953952080254E-08    0.3006797378354159E-09    0.1620825001991122E-11   -0.9920311100364287E-12   -0.1095638462768334E-09
 -0.5576  -0.4286   -0.1453278214747726E-01   -0.4003972174423700E-05   -0.1063566872242369E-05    0.4955591184313660E+00    0.3633421254917039E-02    0.2129838700625337E-08    0.3050635516768652E-09    0.1377518108261477E-11   -0.1049535024860715E-11   -0.4863995491100059E-10
 -0.5580  -0.4318   -0.1611174154534091E-01   -0.1124535361973067E-06   -0.1127238345419607E-06    0.4988883924503955E+00    0.5341274782330189E-03    0.9759392013205358E-10    0.3098547603935277E-09    0.7329819260229464E-12   -0.7250159674010437E-12   -0.1180666073805417E-10
 -0.5582  -0.4329   -0.1663999587662433E-01    0.0000000000000000E+00    0.0000000000000000E+00    0.5000000000000000E+00   -0.1262873713126915E-03    0.0000000000000000E+00    0.0000000000000000E+00    0.0000000000000000E+00    0.0000000000000000E+00    0.0000000000000000E+00
 -0.4285   0.5587    0.2475995403870296E-01    0.0000000000000000E+00    0.0000000000000000E+00   -0.5000000000000000E+00   -0.4290984368652025E-02    0.0000000000000000E+00    0.0000000000000000E+00    0.0000000000000000E+00    0.0000000000000000E+00    0.0000000000000000E+00
 -0.4286   0.5576    0.2528599299558309E-01    0.7631721062543989E-06   -0.3708184950521779E-05   -0.4959624238640428E+00   -0.2692053401644697E-02   -0.2100558849202456E-08   -0.7328699782455095E-09   -0.5453040905108175E-12   -0.6800679268857690E-12    0.7827559455643451E-11
 -0.4290   0.5544    0.2684576492501021E-01    0.6613017940520759E-05   -0.6614015496232721E-05   -0.4838687332588182E+00    0.1005188777219161E-02   -0.2134581008530784E-07   -0.7338767534208895E-09   -0.1628705850742485E-11   -0.1645707116589012E-11    0.3152487385721381E-10
 -0.4297   0.5491    0.2937856929796712E-01    0.8537586513460760E-05    0.2117602366718557E-05   -0.4637863344407732E+00    0.5712382354634106E-02   -0.3740136067506786E-07   -0.7358778365308682E-09   -0.2156267352171337E-11   -0.2106251804911974E-11    0.7086776651621385E-10
 -0.4307   0.5418    0.3275784464279510E-01   -0.3129137585647328E-04    0.1936190307338799E-04   -0.4358603263393306E+00    0.1641105801612924E-01    0.4310051130982435E-07   -0.7384301659724146E-09   -0.1567626237153341E-11   -0.2407613171329093E-11    0.1260207771469624E-09
 -0.4319   0.5324    0.3676890663140701E-01   -0.1530761595212092E-03    0.3587468388296892E-04   -0.4003559645279022E+00    0.4145789009353133E-01    0.3120351927551289E-06   -0.7413703193015486E-09    0.3328093009513644E-12   -0.2635194146227704E-11    0.1977578135969882E-09
 -0.4333   0.5209    0.4111775252427708E-01   -0.3662198680113160E-03    0.4493593642578451E-04   -0.3577070156577893E+00    0.8388501571342646E-01    0.7884572457756672E-06   -0.7445189326160673E-09    0.3614225238535163E-11   -0.2780950816849703E-11    0.2861097365969290E-09
 -0.4350   0.5075    0.4546054660948386E-01   -0.6379293782853951E-03    0.4351759226079168E-04   -0.3085698156589721E+00    0.1375849663325096E+00    0.1397848575299552E-05   -0.7477221376783749E-09    0.8088023306651593E-11   -0.2831975973172085E-11    0.3916341070886453E-09
 -0.4370   0.4922    0.4943657747020616E-01   -0.8983277413007863E-03    0.3127611731103034E-04   -0.2538923164203630E+00    0.1878387507488527E+00    0.1986041002253629E-05   -0.7510241126912343E-09    0.1343828173738792E-10   -0.2843615967695889E-11    0.5127147387207209E-09