 title="result"
 variables="x","y","P","u","v","t","omega","psi","RES1","RES2","RES3","RES4"
zone,j= 49,i= 49,f=point
 -0.2534   0.6601    0.2511078684894401E-01    0.0000000000000000E+00    0.0000000000000000E+00   -0.5000000000000000E+00    0.0000000000000000E+00    0.0000000000000000E+00    0.0000000000000000E+00    0.0000000000000000E+00    0.0000000000000000E+00    0.0000000000000000E+00
 -0.2538   0.6592    0.2559702021675654E-01    0.0000000000000000E+00    0.0000000000000000E+00   -0.4951465478525598E+00    0.3357015163079450E-03    0.0000000000000000E+00    0.0000000000000000E+00    0.0000000000000000E+00    0.0000000000000000E+00    0.0000000000000000E+00
 -0.2551   0.6562    0.2700639657996578E-01    0.0000000000000000E+00    0.0000000000000000E+00   -0.4806097997272271E+00   -0.4538265935287325E-02    0.0000000000000000E+00    0.0000000000000000E+00    0.0000000000000000E+00    0.0000000000000000E+00    0.0000000000000000E+00
 -0.2573   0.6514    0.2926201259207991E-01    0.0000000000000000E+00    0.0000000000000000E+00   -0.4564778780347443E+00   -0.3711654697412897E-01    0.0000000000000000E+00    0.0000000000000000E+00    0.0000000000000000E+00    0.0000000000000000E+00    0.0000000000000000E+00
 -0.2603   0.6446    0.3230833579107682E-01    0.0000000000000000E+00    0.0000000000000000E+00   -0.4229587716647978E+00   -0.1120358361763439E+00    0.0000000000000000E+00    0.0000000000000000E+00    0.0000000000000000E+00    0.0000000000000000E+00    0.0000000000000000E+00
 -0.2642   0.6359    0.3604757739583087E-01    0.0000000000000000E+00    0.0000000000000000E+00   -0.3804819898169252E+00   -0.2241153974141284E+00    0.0000000000000000E+00    0.0000000000000000E+00    0.0000000000000000E+00    0.0000000000000000E+00    0.0000000000000000E+00
 -0.2689   0.6254    0.4029364372185824E-01    0.0000000000000000E+00    0.0000000000000000E+00   -0.3298449877229824E+00   -0.3542198358666518E+00    0.0000000000000000E+00    0.0000000000000000E+00    0.0000000000000000E+00    0.0000000000000000E+00    0.0000000000000000E+00
 -0.2744   0.6130    0.4476101068263152E-01    0.0000000000000000E+00    0.0000000000000000E+00   -0.2723730518255411E+00   -0.4767441465983903E+00    0.0000000000000000E+00    0.0000000000000000E+00    0.0000000000000000E+00    0.0000000000000000E+00    0.0000000000000000E+00
 -0.2807   0.5989    0.4907365481501031E-01    0.0000000000000000E+00    0.0000000000000000E+00   -0.2100269603276420E+00   -0.5684786205461252E+00    0.0000000000000000E+00    0.0000000000000000E+00    0.0000000000000000E+00    0.0000000000000000E+00    0.0000000000000000E+00
 -0.2877   0.5832    0.5280257531465623E-01    0.0000000000000000E+00    0.0000000000000000E+00   -0.1453806566274713E+00   -0.6176400784486945E+00    0.0000000000000000E+00    0.0000000000000000E+00    0.0000000000000000E+00    0.0000000000000000E+00    0.0000000000000000E+00
 -0.2954   0.5658    0.5552693989858505E-01    0.0000000000000000E+00    0.0000000000000000E+00   -0.8142354925755926E-01   -0.6311188698117682E+00    0.0000000000000000E+00    0.0000000000000000E+00    0.0000000000000000E+00    0.0000000000000000E+00    0.0000000000000000E+00
 -0.3039   0.5468    0.5691227597201567E-01    0.0000000000000000E+00    0.0000000000000000E+00   -0.2121092724204057E-01   -0.6357968213558537E+00    0.0000000000000000E+00    0.0000000000000000E+00    0.0000000000000000E+00    0.0000000000000000E+00    0.0000000000000000E+00
 -0.3130   0.5264    0.5677742801825902E-01    0.0000000000000000E+00    0.0000000000000000E+00    0.3255287954326454E-01   -0.6711377831683558E+00    0.0000000000000000E+00    0.0000000000000000E+00    0.0000000000000000E+00    0.0000000000000000E+00    0.0000000000000000E+00
 -0.3227   0.5045    0.5512059319051587E-01    0.0000000000000000E+00    0.0000000000000000E+00    0.7790025344700927E-01   -0.7758470231107459E+00    0.0000000000000000E+00    0.0000000000000000E+00    0.0000000000000000E+00    0.0000000000000000E+00    0.0000000000000000E+00
 -0.3330   0.4814    0.5209137313242820E-01    0.0000000000000000E+00    0.0000000000000000E+00    0.1138787011430139E+00   -0.9767519080526541E+00    0.0000000000000000E+00    0.0000000000000000E+00    0.0000000000000000E+00    0.0000000000000000E+00    0.0000000000000000E+00
 -0.3438   0.4571    0.4793214038875400E-01    0.0000000000000000E+00    0.0000000000000000E+00    0.1406615050313797E+00   -0.1286541286255699E+01    0.0000000000000000E+00    0.0000000000000000E+00    0.0000000000000000E+00    0.0000000000000000E+00    0.0000000000000000E+00
 -0.3551   0.4318    0.4292479771986935E-01    0.0000000000000000E+00    0.0000000000000000E+00    0.1594372064575031E+00   -0.1708862411703559E+01    0.0000000000000000E+00    0.0000000000000000E+00    0.0000000000000000E+00    0.0000000000000000E+00    0.0000000000000000E+00
 -0.3668   0.4054    0.3736376331756677E-01    0.0000000000000000E+00    0.0000000000000000E+00    0.1720702898803759E+00   -0.2243780473719274E+01    0.0000000000000000E+00    0.0000000000000000E+00    0.0000000000000000E+00    0.0000000000000000E+00    0.0000000000000000E+00
 -0.3789   0.3782    0.3155022428862914E-01    0.0000000000000000E+00    0.0000000000000000E+00    0.1806256283121735E+00   -0.2888918516967144E+01    0.0000000000000000E+00    0.0000000000000000E+00    0.0000000000000000E+00    0.0000000000000000E+00    0.0000000000000000E+00
 -0.3914   0.3502    0.2579538995660161E-01    0.0000000000000000E+00    0.0000000000000000E+00    0.1869318314295760E+00   -0.3637143273666370E+01    0.0000000000000000E+00    0.0000000000000000E+00    0.0000000000000000E+00    0.0000000000000000E+00    0.0000000000000000E+00
 -0.4041   0.3216    0.2042283216947307E-01    0.0000000000000000E+00    0.0000000000000000E+00    0.1923359119242298E+00   -0.4473867628872795E+01    0.0000000000000000E+00    0.0000000000000000E+00    0.0000000000000000E+00    0.0000000000000000E+00    0.0000000000000000E+00
 -0.4171   0.2925    0.1576439564599982E-01    0.0000000000000000E+00    0.0000000000000000E+00    0.1976823176340728E+00   -0.5375985289005886E+01    0.0000000000000000E+00    0.0000000000000000E+00    0.0000000000000000E+00    0.0000000000000000E+00    0.0000000000000000E+00
 -0.4302   0.2630    0.1214613085507159E-01    0.0000000000000000E+00    0.0000000000000000E+00    0.2034344865682509E+00   -0.6312737496497821E+01    0.0000000000000000E+00    0.0000000000000000E+00    0.0000000000000000E+00    0.0000000000000000E+00    0.0000000000000000E+00
 -0.4435   0.2332    0.9865604777510329E-02    0.0000000000000000E+00    0.0000000000000000E+00    0.2098271804898572E+00   -0.7247858369322977E+01    0.0000000000000000E+00    0.0000000000000000E+00    0.0000000000000000E+00    0.0000000000000000E+00    0.0000000000000000E+00
 -0.4568   0.2034    0.9164827903683483E-02    0.0000000000000000E+00    0.0000000000000000E+00    0.2169812196483979E+00   -0.8141934151738377E+01    0.0000000000000000E+00    0.0000000000000000E+00    0.0000000000000000E+00    0.0000000000000000E+00    0.0000000000000000E+00
 -0.4701   0.1735    0.1020367719768803E-01    0.0000000000000000E+00    0.0000000000000000E+00    0.2249672281885373E+00   -0.8954141797260622E+01    0.0000000000000000E+00    0.0000000000000000E+00    0.0000000000000000E+00    0.0000000000000000E+00    0.0000000000000000E+00
 -0.4833   0.1437    0.1303582412149169E-01    0.0000000000000000E+00    0.0000000000000000E+00    0.2338330609510977E+00   -0.9643102333900297E+01    0.0000000000000000E+00    0.0000000000000000E+00    0.0000000000000000E+00    0.0000000000000000E+00    0.0000000000000000E+00
 -0.4964   0.1143    0.1758749026422403E-01    0.0000000000000000E+00    0.0000000000000000E+00    0.2436123224678576E+00   -0.1016735553123202E+02    0.0000000000000000E+00    0.0000000000000000E+00    0.0000000000000000E+00    0.0000000000000000E+00    0.0000000000000000E+00
 -0.5094   0.0851    0.2363945746084171E-01    0.0000000000000000E+00    0.0000000000000000E+00    0.2543248237570917E+00   -0.1048643890902775E+02    0.0000000000000000E+00    0.0000000000000000E+00    0.0000000000000000E+00    0.0000000000000000E+00    0.0000000000000000E+00
 -0.5221   0.0565    0.3081633968162178E-01    0.0000000000000000E+00    0.0000000000000000E+00    0.2659740169305179E+00   -0.1056367368693491E+02    0.0000000000000000E+00    0.0000000000000000E+00    0.0000000000000000E+00    0.0000000000000000E+00    0.0000000000000000E+00
 -0.5346   0.0286    0.3859130788445991E-01    0.0000000000000000E+00    0.0000000000000000E+00    0.2785435456190809E+00   -0.1037125281792479E+02    0.0000000000000000E+00    0.0000000000000000E+00    0.0000000000000000E+00    0.0000000000000000E+00    0.0000000000000000E+00
 -0.5467   0.0013    0.4631709569235427E-01    0.0000000000000000E+00    0.0000000000000000E+00    0.2919940310375518E+00   -0.9897255284918042E+01    0.0000000000000000E+00    0.0000000000000000E+00    0.0000000000000000E+00    0.0000000000000000E+00    0.0000000000000000E+00
 -0.5585  -0.0250    0.5329072570001095E-01    0.0000000000000000E+00    0.0000000000000000E+00    0.3062608891105298E+00   -0.9152821537174381E+01    0.0000000000000000E+00    0.0000000000000000E+00    0.0000000000000000E+00    0.0000000000000000E+00    0.0000000000000000E+00
 -0.5698  -0.0504    0.5884876844733165E-01    0.0000000000000000E+00    0.0000000000000000E+00    0.3212536645435045E+00   -0.8176655229589365E+01    0.0000000000000000E+00    0.0000000000000000E+00    0.0000000000000000E+00    0.0000000000000000E+00    0.0000000000000000E+00
 -0.5806  -0.0747    0.6247430245537245E-01    0.0000000000000000E+00    0.0000000000000000E+00    0.3368567914869638E+00   -0.7033917441977328E+01    0.0000000000000000E+00    0.0000000000000000E+00    0.0000000000000000E+00    0.0000000000000000E+00    0.0000000000000000E+00
 -0.5909  -0.0978    0.6388475331925576E-01    0.0000000000000000E+00    0.0000000000000000E+00    0.3529308845130839E+00   -0.5808227104526934E+01    0.0000000000000000E+00    0.0000000000000000E+00    0.0000000000000000E+00    0.0000000000000000E+00    0.0000000000000000E+00
 -0.6006  -0.1196    0.6307085374714322E-01    0.0000000000000000E+00    0.0000000000000000E+00    0.3693129823498859E+00   -0.4588255032497496E+01    0.0000000000000000E+00    0.0000000000000000E+00    0.0000000000000000E+00    0.0000000000000000E+00    0.0000000000000000E+00
 -0.6097  -0.1401    0.6027393382219137E-01    0.0000000000000000E+00    0.0000000000000000E+00    0.3858142235900122E+00   -0.3453044048359582E+01    0.0000000000000000E+00    0.0000000000000000E+00    0.0000000000000000E+00    0.0000000000000000E+00    0.0000000000000000E+00
 -0.6181  -0.1590    0.5591326814821844E-01    0.0000000000000000E+00    0.0000000000000000E+00    0.4022147841842507E+00   -0.2460759291332162E+01    0.0000000000000000E+00    0.0000000000000000E+00    0.0000000000000000E+00    0.0000000000000000E+00    0.0000000000000000E+00
 -0.6259  -0.1764    0.5049261962769588E-01    0.0000000000000000E+00    0.0000000000000000E+00    0.4182584836293039E+00   -0.1643963396902355E+01    0.0000000000000000E+00    0.0000000000000000E+00    0.0000000000000000E+00    0.0000000000000000E+00    0.0000000000000000E+00
 -0.6329  -0.1922    0.4451695356417380E-01    0.0000000000000000E+00    0.0000000000000000E+00    0.4336520621391370E+00   -0.1011416569670456E+01    0.0000000000000000E+00    0.0000000000000000E+00    0.0000000000000000E+00    0.0000000000000000E+00    0.0000000000000000E+00
 -0.6392  -0.2063    0.3843806461936177E-01    0.0000000000000000E+00    0.0000000000000000E+00    0.4480746260866845E+00   -0.5540802804361152E+00    0.0000000000000000E+00    0.0000000000000000E+00    0.0000000000000000E+00    0.0000000000000000E+00    0.0000000000000000E+00
 -0.6447  -0.2186    0.3263191535083541E-01    0.0000000000000000E+00    0.0000000000000000E+00    0.4611995250098449E+00   -0.2517918333635548E+00    0.0000000000000000E+00    0.0000000000000000E+00    0.0000000000000000E+00    0.0000000000000000E+00    0.0000000000000000E+00
 -0.6493  -0.2292    0.2739752206011737E-01    0.0000000000000000E+00    0.0000000000000000E+00    0.4727246696253319E+00   -0.7802183596160479E-01    0.0000000000000000E+00    0.0000000000000000E+00    0.0000000000000000E+00    0.0000000000000000E+00    0.0000000000000000E+00
 -0.6532  -0.2378    0.2296234968344463E-01    0.0000000000000000E+00    0.0000000000000000E+00    0.4824015123829544E+00   -0.1390140447248955E-02    0.0000000000000000E+00    0.0000000000000000E+00    0.0000000000000000E+00    0.0000000000000000E+00    0.0000000000000000E+00
 -0.6562  -0.2446    0.1948057264028552E-01    0.0000000000000000E+00    0.0000000000000000E+00    0.4900518143137352E+00    0.1387329963481268E-01    0.0000000000000000E+00    0.0000000000000000E+00    0.0000000000000000E+00    0.0000000000000000E+00    0.0000000000000000E+00
 -0.6584  -0.2495    0.1702238316961194E-01    0.0000000000000000E+00    0.0000000000000000E+00    0.4955665635130583E+00    0.5330031855682840E-02    0.0000000000000000E+00    0.0000000000000000E+00    0.0000000000000000E+00    0.0000000000000000E+00    0.0000000000000000E+00
 -0.6597  -0.2524    0.1556714663096766E-01    0.0000000000000000E+00    0.0000000000000000E+00    0.4988902130530037E+00   -0.5880353620706955E-04    0.0000000000000000E+00    0.0000000000000000E+00    0.0000000000000000E+00    0.0000000000000000E+00    0.0000000000000000E+00
 -0.6601  -0.2534    0.1508204770005593E-01    0.0000000000000000E+00    0.0000000000000000E+00    0.5000000000000000E+00    0.0000000000000000E+00    0.0000000000000000E+00    0.0000000000000000E+00    0.0000000000000000E+00    0.0000000000000000E+00    0.0000000000000000E+00
 -0.2524   0.6597    0.2532888387550786E-01    0.0000000000000000E+00    0.0000000000000000E+00   -0.5000000000000000E+00    0.3359125665884337E-03    0.0000000000000000E+00    0.0000000000000000E+00    0.0000000000000000E+00    0.0000000000000000E+00    0.0000000000000000E+00
 -0.2529   0.6587    0.2581406204179248E-01    0.3671014455459874E-07   -0.3657393729018068E-07   -0.4951464067245122E+00   -0.6484551623736615E-03   -0.1217757974812634E-10    0.3178543517257625E-09   -0.7671990213259372E-12   -0.7396769828582617E-12    0.1117006498147638E-10
 -0.2542   0.6558    0.2722503208656791E-01    0.6207168599012696E-05   -0.2008856251328619E-05   -0.4806092276070027E+00   -0.7481869937555439E-02   -0.3060012993907797E-08    0.3126616335627497E-09   -0.1383030842627697E-11   -0.1134620175591294E-11    0.4303383994638810E-10
 -0.2563   0.6509    0.2948311694688216E-01    0.3966139310605063E-04   -0.4632681812831034E-05   -0.4564765419319210E+00   -0.3719385652684330E-01   -0.2129296522992690E-07    0.3079260457727884E-09   -0.1303608913524879E-11   -0.1081055384100083E-11    0.9654499595612709E-10
 -0.2594   0.6441    0.3252339156687845E-01    0.1163349319065138E-03   -0.6283180676654089E-05   -0.4229562667831714E+00   -0.1054902811536905E+00   -0.6288879398275683E-07    0.3049558071344105E-09   -0.9588684013461801E-12   -0.1112308162243281E-11    0.1725571838195883E-09
 -0.2632   0.6355    0.3624599826815488E-01    0.2323622367781815E-03   -0.6698447718563193E-05   -0.3804778742395270E+00   -0.2101022121837462E+00   -0.1257231505892875E-06    0.3032098513239267E-09   -0.5826727988988978E-12   -0.1063257121236560E-11    0.2716173050365533E-09
 -0.2679   0.6249    0.4046631780987888E-01    0.3683768095975720E-03   -0.5897192888511375E-05   -0.3298388776684534E+00   -0.3340846427438039E+00   -0.1990857913520657E-06    0.3024135854928778E-09   -0.4376152218377172E-12   -0.1040202646240829E-11    0.3964352665586368E-09
 -0.2734   0.6126    0.4490107292353080E-01    0.4977826531420913E-03   -0.4353626678541982E-05   -0.2723647486001350E+00   -0.4532992782489825E+00   -0.2686804667270194E-06    0.3014682878332842E-09   -0.7209094432525376E-12   -0.1046142339422573E-11    0.5504155881075334E-09
 -0.2797   0.5985    0.4917761571628671E-01    0.5961609871322394E-03   -0.2509195530724735E-05   -0.2100165594639032E+00   -0.5453591324713895E+00   -0.3212995944647657E-06    0.2990784980783090E-09   -0.1520124304210668E-11   -0.1021068646300805E-11    0.7386879441462213E-09
 -0.2867   0.5827    0.5287074812774550E-01    0.6509285651059202E-03   -0.9584005468010322E-06   -0.1453685841303974E+00   -0.5985160482595873E+00   -0.3502443622058477E-06    0.2934949750680454E-09   -0.2837015344869798E-11   -0.1024467836951981E-11    0.9669870459916297E-09
 -0.2945   0.5653    0.5556340576937342E-01    0.6690393530835419E-03   -0.1635745382407055E-06   -0.8141049974312575E-01   -0.6188804939103004E+00   -0.3592809796920073E-06    0.2827078724658254E-09   -0.4614648940748367E-11   -0.1005986526719793E-11    0.1237284538713190E-08
 -0.3029   0.5464    0.5692377297816337E-01    0.6784736416827272E-03   -0.4225598052056933E-06   -0.2119773263964652E-01   -0.6318290498129869E+00   -0.3635491109664393E-06    0.2642699464209392E-09   -0.6758330006739754E-11   -0.9750525040153057E-12    0.1543109431900724E-08
 -0.3120   0.5259    0.5677158606937410E-01    0.7205679396714690E-03   -0.1651238517867284E-05    0.3256538917499208E-01   -0.6751272961330277E+00   -0.3853219087336109E-06    0.2357144397203970E-09   -0.9108913276434372E-11   -0.9734400785443853E-12    0.1864190787848052E-08
 -0.3217   0.5041    0.5510422666307389E-01    0.8360760754586579E-03   -0.3527650972245289E-05    0.7791135641203170E-01   -0.7862013944757966E+00   -0.4465443065052082E-06    0.1950176010262483E-09   -0.1144031744337859E-10   -0.9473845319352137E-12    0.2164047691044502E-08
 -0.3320   0.4810    0.5206973600104017E-01    0.1053445916589158E-02   -0.5633181473361845E-05    0.1138878635524269E+00   -0.9913777059066181E+00   -0.5624870775054190E-06    0.1413271149414141E-09   -0.1349068773359718E-10   -0.9125859790071189E-12    0.2394092757374011E-08
 -0.3428   0.4567    0.4790909666790030E-01    0.1386287784934923E-02   -0.7715335874486255E-05    0.1406684512489753E+00   -0.1303395681413459E+01   -0.7404331510024706E-06    0.7528275225432424E-10   -0.1499762813939043E-10   -0.8679862384397552E-12    0.2505712963507545E-08
 -0.3541   0.4313    0.4290325815136160E-01    0.1838573547046580E-02   -0.9674864782140575E-05    0.1594419641561640E+00   -0.1726032427851302E+01   -0.9824976393324642E-06   -0.9420311752883492E-12   -0.1569312735316686E-10   -0.8296072162572443E-12    0.2466715994658975E-08
 -0.3658   0.4050    0.3734578820322632E-01    0.2410306175882163E-02   -0.1151555172083607E-04    0.1720731653550706E+00   -0.2259227657196801E+01   -0.1288690988607590E-05   -0.8417968058727077E-10   -0.1527897253161825E-10   -0.7704253901508196E-12    0.2274118705847261E-08
 -0.3780   0.3777    0.3153683835753886E-01    0.3098734054722421E-02   -0.1320142646466938E-04    0.1806270959378477E+00   -0.2900216810803307E+01   -0.1657582333782060E-05   -0.1706175548066291E-09   -0.1340173111374909E-10   -0.7179187799799536E-12    0.1955678776907610E-08
 -0.3904   0.3498    0.2578642130211779E-01    0.3895955416293819E-02   -0.1465962409578757E-04    0.1869323828942578E+00   -0.3641370301828330E+01   -0.2084982478367050E-05   -0.2563228136687190E-09   -0.9738600550979193E-11   -0.6178807465673231E-12    0.1558721552871734E-08
 -0.4032   0.3212    0.2041695876165235E-01    0.4786123736629295E-02   -0.1576885701302919E-04    0.1923359392396024E+00   -0.4467668639446828E+01   -0.2562458993766391E-05   -0.3372171361593068E-09   -0.4099843728400110E-11   -0.5505179645481917E-12    0.1133873426357665E-08
 -0.4161   0.2920    0.1575937399750703E-01    0.5744376135481881E-02   -0.1642282096867517E-04    0.1976820715825978E+00   -0.5355770283229673E+01   -0.3076716094033885E-05   -0.4090219690722208E-09    0.3489798727773774E-11   -0.4473504899848990E-12    0.7212775511404590E-09
 -0.4292   0.2626    0.1213908731325206E-01    0.6737806185525040E-02   -0.1652871470687005E-04    0.2034340977792332E+00   -0.6274955537473777E+01   -0.3610147765697174E-05   -0.4670886663560303E-09    0.1272883187741769E-10   -0.3801403636316536E-12    0.3462857318600743E-09
 -0.4425   0.2328    0.9853303734561541E-02    0.7727773373946416E-02   -0.1603822379827593E-04    0.2098267037976006E+00   -0.7189304364706737E+01   -0.4142025118090343E-05   -0.5066616466653517E-09    0.2306069224466967E-10   -0.3019112737590035E-12    0.2085697673598341E-10
 -0.4558   0.2029    0.9143832655059402E-02    0.8672422290964375E-02   -0.1491635757310344E-04    0.2169806719136990E+00   -0.8060032373732101E+01   -0.4649898485817032E-05   -0.5233828197226398E-09    0.3377328972042903E-10   -0.2302324997316418E-12   -0.2515247697620904E-09
 -0.4691   0.1731    0.1017040994436269E-01    0.9528528402355622E-02   -0.1314397440225181E-04    0.2249666106884800E+00   -0.8847213572307650E+01   -0.5110529564534712E-05   -0.5138687808603493E-09    0.4413552856519232E-10   -0.1679836825196901E-12   -0.4721181050271195E-09
 -0.4823   0.1433    0.1298652925707700E-01    0.1025240920805468E-01   -0.1068529293916251E-04    0.2338323698819229E+00   -0.9510613970136349E+01   -0.5500444497430891E-05   -0.4764006758528616E-09    0.5342931652663196E-10   -0.1094749291219443E-12   -0.6445049676243042E-09
 -0.4955   0.1138    0.1751821206776125E-01    0.1080044026331388E-01   -0.7504809309464642E-05    0.2436115532875671E+00   -0.1001019877377339E+02   -0.5796137114335382E-05   -0.4111221415387112E-09    0.6107137018318554E-10   -0.9576367476782366E-13   -0.7717990127206753E-09
 -0.5084   0.0847    0.2354609453830836E-01    0.1113021985795391E-01   -0.3571340527665953E-05    0.2543239730402808E+00   -0.1030720924686929E+02   -0.5974769485035966E-05   -0.3202691731610252E-09    0.6661610152391972E-10   -0.9837963776959668E-13   -0.8587751447464154E-09
 -0.5212   0.0561    0.3069491541054441E-01    0.1120352537833844E-01    0.1088529121195972E-05    0.2659730832843464E+00   -0.1036692297026200E+02   -0.6015672408751280E-05   -0.2080683724273169E-09    0.6975886535087739E-10   -0.1130050913955571E-12   -0.9089627887176599E-09
 -0.5336   0.0281    0.3843845651016568E-01    0.1099167028076306E-01    0.6354833124177118E-05    0.2785425300399947E+00   -0.1016354789920931E+02   -0.5903324292076059E-05   -0.8053523820050756E-10    0.7031297766246780E-10   -0.1189881526642012E-12   -0.9267858685352293E-09
 -0.5457   0.0009    0.4613078005394941E-01    0.1048283329216197E-01    0.1196073864586228E-04    0.2919929366225770E+00   -0.9686929903031865E+01   -0.5631201137144258E-05    0.5491527024781284E-10    0.6829325993606972E-10   -0.1770458779581929E-12   -0.9161792002138069E-09
 -0.5575  -0.0255    0.5307096288421178E-01    0.9689499764410211E-02    0.1749539599380766E-04    0.3062597199869957E+00   -0.8949245818375992E+01   -0.5205918766528240E-05    0.1903011567772062E-09    0.6386113859946363E-10   -0.1982164432590139E-12   -0.8819718184949199E-09
 -0.5688  -0.0508    0.5859817285034624E-01    0.8653047431652790E-02    0.2243804986049839E-04    0.3212524241275008E+00   -0.7989106257795337E+01   -0.4649599858995159E-05    0.3177964350009610E-09    0.5743522324408445E-10   -0.2163130785604039E-12   -0.8284138045683287E-09
 -0.5796  -0.0751    0.6219809647808278E-01    0.7442454980823739E-02    0.2626724119848268E-04    0.3368554806691617E+00   -0.6870205151967365E+01   -0.3999345756808756E-05    0.4309580817207781E-09    0.4958256027975949E-10   -0.2101235851981187E-12   -0.7606191700787468E-09
 -0.5899  -0.0982    0.6359020530471947E-01    0.6145832037446305E-02    0.2857871504668197E-04    0.3529295009236944E+00   -0.5673544684918310E+01   -0.3302524424841831E-05    0.5255915702662151E-09    0.4106137652115649E-10   -0.2220168493494157E-12   -0.6835834277102437E-09
 -0.5996  -0.1201    0.6276615497281066E-01    0.4856372574746875E-02    0.2919664549303081E-04    0.3693115221410780E+00   -0.4484542284938301E+01   -0.2609379673295927E-05    0.6001624613949375E-09    0.3259525982457490E-10   -0.1993127884958312E-12   -0.6007035355248824E-09
 -0.6087  -0.1405    0.5996697452798999E-01    0.3657032604075269E-02    0.2820069935974529E-04    0.3858126867503747E+00   -0.3379152116153111E+01   -0.1964552282708752E-05    0.6555514048267597E-09    0.2479794147802750E-10   -0.1770805724277125E-12   -0.5169725394299496E-09
 -0.6171  -0.1594    0.5561058677911155E-01    0.2608827326006730E-02    0.2588242493761484E-04    0.4022131829747509E+00   -0.2413173843545494E+01   -0.1400993198491147E-05    0.6943515762358743E-09    0.1805837424040391E-10   -0.2145505995088115E-12   -0.4351411383995973E-09
 -0.6249  -0.1769    0.5019896565622541E-01    0.1745921500130481E-02    0.2263287248683317E-04    0.4182568515210698E+00   -0.1617899107277915E+01   -0.9370335067695706E-06    0.7199351323428083E-09    0.1255950898837455E-10   -0.2232519724643112E-12   -0.3576411649469646E-09
 -0.6319  -0.1926    0.4423532209956883E-01    0.1077519500119660E-02    0.1882985255124133E-04    0.4336504586604102E+00   -0.1001729720964841E+01   -0.5777260460607512E-06    0.7356644945999413E-09    0.8278513291548606E-11   -0.2184918912462308E-12   -0.2859673348815095E-09
 -0.6382  -0.2067    0.3817023047188568E-01    0.5940930378752246E-03    0.1475619507059919E-04    0.4480731328247124E+00   -0.5559483249910541E+00   -0.3178302487311874E-06    0.7444553619395666E-09    0.5107772278051259E-11   -0.2309957780610716E-12   -0.2212529985612388E-09
 -0.6437  -0.2191    0.3237885338667413E-01    0.2743148914738503E-03    0.1059264657787600E-04    0.4611982307244197E+00   -0.2608190454363780E+00   -0.1460249562640619E-06    0.7486893639774284E-09    0.2890233191665814E-11   -0.2553929290272094E-12   -0.1641477492125842E-09
 -0.6484  -0.2296    0.2715960763279471E-01    0.8994558972470733E-04    0.6492778458541608E-05    0.4727236474938458E+00   -0.9019017773786546E-01   -0.4698971217488500E-07    0.7501905676526865E-09    0.1477987870979192E-11   -0.2518610320301207E-12   -0.1146825993544875E-09
 -0.6522  -0.2383    0.2273858681592686E-01    0.7494925990253135E-05    0.2749791582632848E-05    0.4824007974726672E+00   -0.1275276291685134E-01   -0.3005248355920772E-08    0.7504782004175148E-09    0.7196986062663058E-12   -0.2763900219804327E-12   -0.7343471490617315E-10
 -0.6553  -0.2451    0.1926712219840996E-01   -0.1115096127003149E-04   -0.7634139864540660E-07    0.4900513913895894E+00    0.6753000839140448E-02    0.6683390682562559E-08    0.7506436166042579E-09    0.4409892589984921E-12   -0.2855981510313521E-12   -0.4155576837500119E-10
 -0.6574  -0.2499    0.1681061465770547E-01   -0.4928528506805327E-05   -0.1183676962851264E-05    0.4955663717017759E+00    0.3941633954351691E-02    0.2698554476083335E-08    0.7515535552834324E-09    0.3811768609085497E-12   -0.3093779572804767E-12   -0.1851956890792927E-10
 -0.6587  -0.2529    0.1535302456428366E-01   -0.2011118899618007E-06   -0.2011348314573406E-06    0.4988901648784857E+00    0.7006745007968456E-03    0.1713767481430851E-09    0.7529411687233825E-09    0.2093301660482938E-12   -0.2206277695260273E-12   -0.4895251576059884E-11
 -0.6592  -0.2538    0.1486768392453584E-01    0.0000000000000000E+00    0.0000000000000000E+00    0.5000000000000000E+00   -0.5847847323222532E-04    0.0000000000000000E+00    0.0000000000000000E+00    0.0000000000000000E+00    0.0000000000000000E+00    0.0000000000000000E+00
 -0.2495   0.6584    0.2600108529512090E-01    0.0000000000000000E+00    0.0000000000000000E+00   -0.5000000000000000E+00   -0.4534708053556947E-02    0.0000000000000000E+00    0.0000000000000000E+00    0.0000000000000000E+00    0.0000000000000000E+00    0.0000000000000000E+00
 -0.2499   0.6574    0.2647834315498478E-01    0.2007474406536257E-05   -0.6204742944568257E-05   -0.4951443178471099E+00   -0.7480563078766403E-02   -0.3058453336915463E-08    0.3129989947781020E-09   -0.1102319732888823E-11   -0.1474988534089228E-11    0.1054428159369403E-10
 -0.2512   0.6545    0.2787980761231094E-01    0.3149206854279835E-04   -0.3149627780751665E-04   -0.4806007923568675E+00   -0.1608469820850251E-01   -0.6254033671757692E-07    0.3109532475259469E-09   -0.3155855026089338E-11   -0.3576871437926954E-11    0.4283737991064851E-10
 -0.2534   0.6496    0.3013287860292459E-01    0.1526106471864604E-03   -0.6741201952454317E-04   -0.4564570203700767E+00   -0.3824283460787976E-01   -0.3329972636630900E-06    0.3076726200201829E-09   -0.4034290262966422E-11   -0.4415415949532431E-11    0.9653294830158643E-10
 -0.2564   0.6428    0.3315325166468400E-01    0.4241369626410659E-03   -0.9343297608715114E-04   -0.4229200218885687E+00   -0.8901726301397524E-01   -0.9452841468410619E-06    0.3048290092566575E-09   -0.3505980228357686E-11   -0.4611724196967870E-11    0.1724014299375742E-09
 -0.2603   0.6342    0.3682931623900196E-01    0.8449555917530942E-03   -0.1009604337044726E-03   -0.3804186739877010E+00   -0.1728401722680713E+00   -0.1884998748294375E-05    0.3029627312911565E-09   -0.2643194690898909E-11   -0.4481682386314745E-11    0.2714042636464686E-09
 -0.2650   0.6236    0.4097699588118014E-01    0.1351747762564300E-02   -0.9080929646100974E-04   -0.3297511247975823E+00   -0.2792477788424700E+00   -0.3003206230438914E-05    0.3017881292088909E-09   -0.2484366878885425E-11   -0.4248188606448267E-11    0.3961009159558770E-09
 -0.2705   0.6113    0.4531871076949257E-01    0.1848349072151330E-02   -0.6843387722477580E-04   -0.2722452819360588E+00   -0.3886915973513130E+00   -0.4084651478161702E-05    0.3004294799047180E-09   -0.3871285236822786E-11   -0.3976565604579818E-11    0.5500019259474520E-09
 -0.2767   0.5972    0.4949113608088215E-01    0.2242736391684112E-02   -0.4127935357511620E-04   -0.2098663218502116E+00   -0.4813158942864962E+00   -0.4927088991443836E-05    0.2975865630305830E-09   -0.7178597993817704E-11   -0.3740278919917017E-11    0.7384485870010060E-09