 title="result"
 variables="x","y","P","u","v","t","omega","psi","RES1","RES2","RES3","RES4"
zone,j= 49,i= 49,f=point
 -0.2534   0.6601    0.2517418577577465E-01    0.0000000000000000E+00    0.0000000000000000E+00   -0.5000000000000000E+00    0.0000000000000000E+00    0.0000000000000000E+00    0.0000000000000000E+00    0.0000000000000000E+00    0.0000000000000000E+00    0.0000000000000000E+00
 -0.2538   0.6592    0.2566041610438484E-01    0.0000000000000000E+00    0.0000000000000000E+00   -0.4951491143474934E+00    0.3360158297867441E-03    0.0000000000000000E+00    0.0000000000000000E+00    0.0000000000000000E+00    0.0000000000000000E+00    0.0000000000000000E+00
 -0.2551   0.6562    0.2706981968998127E-01    0.0000000000000000E+00    0.0000000000000000E+00   -0.4806200512967356E+00   -0.4550575460318774E-02    0.0000000000000000E+00    0.0000000000000000E+00    0.0000000000000000E+00    0.0000000000000000E+00    0.0000000000000000E+00
 -0.2573   0.6514    0.2932560942864615E-01    0.0000000000000000E+00    0.0000000000000000E+00   -0.4565008690000652E+00   -0.3717372871447960E-01    0.0000000000000000E+00    0.0000000000000000E+00    0.0000000000000000E+00    0.0000000000000000E+00    0.0000000000000000E+00
 -0.2603   0.6446    0.3237235775132663E-01    0.0000000000000000E+00    0.0000000000000000E+00   -0.4229993722164241E+00   -0.1121505400404430E+00    0.0000000000000000E+00    0.0000000000000000E+00    0.0000000000000000E+00    0.0000000000000000E+00    0.0000000000000000E+00
 -0.2642   0.6359    0.3611229062200802E-01    0.0000000000000000E+00    0.0000000000000000E+00   -0.3805446209501348E+00   -0.2242534685998457E+00    0.0000000000000000E+00    0.0000000000000000E+00    0.0000000000000000E+00    0.0000000000000000E+00    0.0000000000000000E+00
 -0.2689   0.6254    0.4035927892128659E-01    0.0000000000000000E+00    0.0000000000000000E+00   -0.3299331090849576E+00   -0.3543016628560299E+00    0.0000000000000000E+00    0.0000000000000000E+00    0.0000000000000000E+00    0.0000000000000000E+00    0.0000000000000000E+00
 -0.2744   0.6130    0.4482775667317480E-01    0.0000000000000000E+00    0.0000000000000000E+00   -0.2724883381879323E+00   -0.4766614287437416E+00    0.0000000000000000E+00    0.0000000000000000E+00    0.0000000000000000E+00    0.0000000000000000E+00    0.0000000000000000E+00
 -0.2807   0.5989    0.4914167745860453E-01    0.0000000000000000E+00    0.0000000000000000E+00   -0.2101682631505355E+00   -0.5681187710895164E+00    0.0000000000000000E+00    0.0000000000000000E+00    0.0000000000000000E+00    0.0000000000000000E+00    0.0000000000000000E+00
 -0.2877   0.5832    0.5287202157910748E-01    0.0000000000000000E+00    0.0000000000000000E+00   -0.1455431021748408E+00   -0.6169129063850134E+00    0.0000000000000000E+00    0.0000000000000000E+00    0.0000000000000000E+00    0.0000000000000000E+00    0.0000000000000000E+00
 -0.2954   0.5658    0.5559789959542035E-01    0.0000000000000000E+00    0.0000000000000000E+00   -0.8159831802812048E-01   -0.6299828654967169E+00    0.0000000000000000E+00    0.0000000000000000E+00    0.0000000000000000E+00    0.0000000000000000E+00    0.0000000000000000E+00
 -0.3039   0.5468    0.5698469795828672E-01    0.0000000000000000E+00    0.0000000000000000E+00   -0.2138618691022577E-01   -0.6342782474174491E+00    0.0000000000000000E+00    0.0000000000000000E+00    0.0000000000000000E+00    0.0000000000000000E+00    0.0000000000000000E+00
 -0.3130   0.5264    0.5685101018353934E-01    0.0000000000000000E+00    0.0000000000000000E+00    0.3238983102308433E-01   -0.6693328169861367E+00    0.0000000000000000E+00    0.0000000000000000E+00    0.0000000000000000E+00    0.0000000000000000E+00    0.0000000000000000E+00
 -0.3227   0.5045    0.5519467179688157E-01    0.0000000000000000E+00    0.0000000000000000E+00    0.7776017694474353E-01   -0.7739050653495363E+00    0.0000000000000000E+00    0.0000000000000000E+00    0.0000000000000000E+00    0.0000000000000000E+00    0.0000000000000000E+00
 -0.3330   0.4814    0.5216485040556103E-01    0.0000000000000000E+00    0.0000000000000000E+00    0.1137679394841203E+00   -0.9748548539481419E+00    0.0000000000000000E+00    0.0000000000000000E+00    0.0000000000000000E+00    0.0000000000000000E+00    0.0000000000000000E+00
 -0.3438   0.4571    0.4800350462334140E-01    0.0000000000000000E+00    0.0000000000000000E+00    0.1405808555402676E+00   -0.1284898244607042E+01    0.0000000000000000E+00    0.0000000000000000E+00    0.0000000000000000E+00    0.0000000000000000E+00    0.0000000000000000E+00
 -0.3551   0.4318    0.4299227079450577E-01    0.0000000000000000E+00    0.0000000000000000E+00    0.1593826159790767E+00   -0.1707721730847550E+01    0.0000000000000000E+00    0.0000000000000000E+00    0.0000000000000000E+00    0.0000000000000000E+00    0.0000000000000000E+00
 -0.3668   0.4054    0.3742554664383651E-01    0.0000000000000000E+00    0.0000000000000000E+00    0.1720349723188679E+00   -0.2243441284167469E+01    0.0000000000000000E+00    0.0000000000000000E+00    0.0000000000000000E+00    0.0000000000000000E+00    0.0000000000000000E+00
 -0.3789   0.3782    0.3160477170222271E-01    0.0000000000000000E+00    0.0000000000000000E+00    0.1806025286271837E+00   -0.2889724866391054E+01    0.0000000000000000E+00    0.0000000000000000E+00    0.0000000000000000E+00    0.0000000000000000E+00    0.0000000000000000E+00
 -0.3914   0.3502    0.2584165589212661E-01    0.0000000000000000E+00    0.0000000000000000E+00    0.1869153575666007E+00   -0.3639458338402688E+01    0.0000000000000000E+00    0.0000000000000000E+00    0.0000000000000000E+00    0.0000000000000000E+00    0.0000000000000000E+00
 -0.4041   0.3216    0.2046048302012700E-01    0.0000000000000000E+00    0.0000000000000000E+00    0.1923224957395366E+00   -0.4478034855710471E+01    0.0000000000000000E+00    0.0000000000000000E+00    0.0000000000000000E+00    0.0000000000000000E+00    0.0000000000000000E+00
 -0.4171   0.2925    0.1579397687450334E-01    0.0000000000000000E+00    0.0000000000000000E+00    0.1976700919127732E+00   -0.5382284970421352E+01    0.0000000000000000E+00    0.0000000000000000E+00    0.0000000000000000E+00    0.0000000000000000E+00    0.0000000000000000E+00
 -0.4302   0.2630    0.1216916266466902E-01    0.0000000000000000E+00    0.0000000000000000E+00    0.2034226544571260E+00   -0.6321346919209431E+01    0.0000000000000000E+00    0.0000000000000000E+00    0.0000000000000000E+00    0.0000000000000000E+00    0.0000000000000000E+00
 -0.4435   0.2332    0.9884570788265823E-02    0.0000000000000000E+00    0.0000000000000000E+00    0.2098154867612653E+00   -0.7258822151055607E+01    0.0000000000000000E+00    0.0000000000000000E+00    0.0000000000000000E+00    0.0000000000000000E+00    0.0000000000000000E+00
 -0.4568   0.2034    0.9183036127884740E-02    0.0000000000000000E+00    0.0000000000000000E+00    0.2169696408538736E+00   -0.8155147646878241E+01    0.0000000000000000E+00    0.0000000000000000E+00    0.0000000000000000E+00    0.0000000000000000E+00    0.0000000000000000E+00
 -0.4701   0.1735    0.1022499645285124E-01    0.0000000000000000E+00    0.0000000000000000E+00    0.2249558296499206E+00   -0.8969346364204428E+01    0.0000000000000000E+00    0.0000000000000000E+00    0.0000000000000000E+00    0.0000000000000000E+00    0.0000000000000000E+00
 -0.4833   0.1437    0.1306431683418501E-01    0.0000000000000000E+00    0.0000000000000000E+00    0.2338219398714897E+00   -0.9659889461621924E+01    0.0000000000000000E+00    0.0000000000000000E+00    0.0000000000000000E+00    0.0000000000000000E+00    0.0000000000000000E+00
 -0.4964   0.1143    0.1762697138039701E-01    0.0000000000000000E+00    0.0000000000000000E+00    0.2436015853283924E+00   -0.1018517833907880E+02    0.0000000000000000E+00    0.0000000000000000E+00    0.0000000000000000E+00    0.0000000000000000E+00    0.0000000000000000E+00
 -0.5094   0.0851    0.2369301726331630E-01    0.0000000000000000E+00    0.0000000000000000E+00    0.2543145751666862E+00   -0.1050463318653943E+02    0.0000000000000000E+00    0.0000000000000000E+00    0.0000000000000000E+00    0.0000000000000000E+00    0.0000000000000000E+00
 -0.5221   0.0565    0.3088588537746303E-01    0.0000000000000000E+00    0.0000000000000000E+00    0.2659643525160913E+00   -0.1058149409909236E+02    0.0000000000000000E+00    0.0000000000000000E+00    0.0000000000000000E+00    0.0000000000000000E+00    0.0000000000000000E+00
 -0.5346   0.0286    0.3867720574752356E-01    0.0000000000000000E+00    0.0000000000000000E+00    0.2785345476878857E+00   -0.1038793045799208E+02    0.0000000000000000E+00    0.0000000000000000E+00    0.0000000000000000E+00    0.0000000000000000E+00    0.0000000000000000E+00
 -0.5467   0.0013    0.4641801881650402E-01    0.0000000000000000E+00    0.0000000000000000E+00    0.2919857677590668E+00   -0.9912078228963432E+01    0.0000000000000000E+00    0.0000000000000000E+00    0.0000000000000000E+00    0.0000000000000000E+00    0.0000000000000000E+00
 -0.5585  -0.0250    0.5340380520360390E-01    0.0000000000000000E+00    0.0000000000000000E+00    0.3062534181306815E+00   -0.9165229981995282E+01    0.0000000000000000E+00    0.0000000000000000E+00    0.0000000000000000E+00    0.0000000000000000E+00    0.0000000000000000E+00
 -0.5698  -0.0504    0.5897008364813591E-01    0.0000000000000000E+00    0.0000000000000000E+00    0.3212470407109261E+00   -0.8186330239233191E+01    0.0000000000000000E+00    0.0000000000000000E+00    0.0000000000000000E+00    0.0000000000000000E+00    0.0000000000000000E+00
 -0.5806  -0.0747    0.6259962977100268E-01    0.0000000000000000E+00    0.0000000000000000E+00    0.3368510757776322E+00   -0.7040834419872994E+01    0.0000000000000000E+00    0.0000000000000000E+00    0.0000000000000000E+00    0.0000000000000000E+00    0.0000000000000000E+00
 -0.5909  -0.0978    0.6401037335216525E-01    0.0000000000000000E+00    0.0000000000000000E+00    0.3529261480203934E+00   -0.5812649797720296E+01    0.0000000000000000E+00    0.0000000000000000E+00    0.0000000000000000E+00    0.0000000000000000E+00    0.0000000000000000E+00
 -0.6006  -0.1196    0.6319416696493337E-01    0.0000000000000000E+00    0.0000000000000000E+00    0.3693092975217764E+00   -0.4590665220563504E+01    0.0000000000000000E+00    0.0000000000000000E+00    0.0000000000000000E+00    0.0000000000000000E+00    0.0000000000000000E+00
 -0.6097  -0.1401    0.6039370607912322E-01    0.0000000000000000E+00    0.0000000000000000E+00    0.3858116379153039E+00   -0.3454027527776140E+01    0.0000000000000000E+00    0.0000000000000000E+00    0.0000000000000000E+00    0.0000000000000000E+00    0.0000000000000000E+00
 -0.6181  -0.1590    0.5602948485170153E-01    0.0000000000000000E+00    0.0000000000000000E+00    0.4022132810144812E+00   -0.2460885557643639E+01    0.0000000000000000E+00    0.0000000000000000E+00    0.0000000000000000E+00    0.0000000000000000E+00    0.0000000000000000E+00
 -0.6259  -0.1764    0.5060607883979598E-01    0.0000000000000000E+00    0.0000000000000000E+00    0.4182579474205243E+00   -0.1643694683752768E+01    0.0000000000000000E+00    0.0000000000000000E+00    0.0000000000000000E+00    0.0000000000000000E+00    0.0000000000000000E+00
 -0.6329  -0.1922    0.4462878937087890E-01    0.0000000000000000E+00    0.0000000000000000E+00    0.4336522716550010E+00   -0.1011064658245422E+01    0.0000000000000000E+00    0.0000000000000000E+00    0.0000000000000000E+00    0.0000000000000000E+00    0.0000000000000000E+00
 -0.6392  -0.2063    0.3854935497296150E-01    0.0000000000000000E+00    0.0000000000000000E+00    0.4480752896186635E+00   -0.5538087424640221E+00    0.0000000000000000E+00    0.0000000000000000E+00    0.0000000000000000E+00    0.0000000000000000E+00    0.0000000000000000E+00
 -0.6447  -0.2186    0.3274344195582986E-01    0.0000000000000000E+00    0.0000000000000000E+00    0.4612003480070267E+00   -0.2516483399145056E+00    0.0000000000000000E+00    0.0000000000000000E+00    0.0000000000000000E+00    0.0000000000000000E+00    0.0000000000000000E+00
 -0.6493  -0.2292    0.2750967936679886E-01    0.0000000000000000E+00    0.0000000000000000E+00    0.4727254234678585E+00   -0.7798264250102011E-01    0.0000000000000000E+00    0.0000000000000000E+00    0.0000000000000000E+00    0.0000000000000000E+00    0.0000000000000000E+00
 -0.6532  -0.2378    0.2307516931281759E-01    0.0000000000000000E+00    0.0000000000000000E+00    0.4824020717834376E+00   -0.1403502318550775E-02    0.0000000000000000E+00    0.0000000000000000E+00    0.0000000000000000E+00    0.0000000000000000E+00    0.0000000000000000E+00
 -0.6562  -0.2446    0.1959383655270782E-01    0.0000000000000000E+00    0.0000000000000000E+00    0.4900521521163423E+00    0.1385305370449494E-01    0.0000000000000000E+00    0.0000000000000000E+00    0.0000000000000000E+00    0.0000000000000000E+00    0.0000000000000000E+00
 -0.6584  -0.2495    0.1713580162983524E-01    0.0000000000000000E+00    0.0000000000000000E+00    0.4955667177934424E+00    0.5322452653206855E-02    0.0000000000000000E+00    0.0000000000000000E+00    0.0000000000000000E+00    0.0000000000000000E+00    0.0000000000000000E+00
 -0.6597  -0.2524    0.1568056520781181E-01    0.0000000000000000E+00    0.0000000000000000E+00    0.4988902518910535E+00   -0.5898191916935417E-04    0.0000000000000000E+00    0.0000000000000000E+00    0.0000000000000000E+00    0.0000000000000000E+00    0.0000000000000000E+00
 -0.6601  -0.2534    0.1519545784526897E-01    0.0000000000000000E+00    0.0000000000000000E+00    0.5000000000000000E+00    0.0000000000000000E+00    0.0000000000000000E+00    0.0000000000000000E+00    0.0000000000000000E+00    0.0000000000000000E+00    0.0000000000000000E+00
 -0.2524   0.6597    0.2539228709167487E-01    0.0000000000000000E+00    0.0000000000000000E+00   -0.5000000000000000E+00    0.3362265584935621E-03    0.0000000000000000E+00    0.0000000000000000E+00    0.0000000000000000E+00    0.0000000000000000E+00    0.0000000000000000E+00
 -0.2529   0.6587    0.2587746277871394E-01    0.3708607535108467E-07   -0.3695003433996358E-07   -0.4951489733901839E+00   -0.6501178296240700E-03   -0.1245357115387353E-10    0.3668248105986351E-09   -0.7528242352422554E-12   -0.7412282593266539E-12    0.1055250559243298E-10
 -0.2542   0.6558    0.2728846142777175E-01    0.6220509070420406E-05   -0.2012540775901168E-05   -0.4806194798695659E+00   -0.7495013784353855E-02   -0.3066998591589991E-08    0.3616525009152161E-09   -0.1384149739269702E-11   -0.1115175660149070E-11    0.4221550886640557E-10
 -0.2563   0.6509    0.2954671480339837E-01    0.3971755867210218E-04   -0.4637542834344988E-05   -0.4564995345401442E+00   -0.3724157789147409E-01   -0.2132404884936440E-07    0.3569473761705355E-09   -0.1305891809619264E-11   -0.1080840278389061E-11    0.9506810963455514E-10
 -0.2594   0.6441    0.3258740183685302E-01    0.1164465446945194E-03   -0.6286230809117472E-05   -0.4229968705425287E+00   -0.1055841431702235E+00   -0.6295042215976377E-07    0.3540543379310090E-09   -0.9718545412873425E-12   -0.1088188567033299E-11    0.1694717664812995E-09
 -0.2632   0.6355    0.3631068873665427E-01    0.2324950446549703E-03   -0.6697843699231016E-05   -0.3805405109677689E+00   -0.2102122095217122E+00   -0.1257969319306446E-06    0.3523948546163558E-09   -0.6349781811465505E-12   -0.1073318517397226E-11    0.2668585213916330E-09
 -0.2679   0.6249    0.4053192577544591E-01    0.3684487467613160E-03   -0.5892295060679823E-05   -0.3299270078604415E+00   -0.3341372347749322E+00   -0.1991270164124753E-06    0.3516546307619217E-09   -0.5506428646384620E-12   -0.1097025248419925E-11    0.3903316975195636E-09
 -0.2734   0.6126    0.4496779569300410E-01    0.4976809819662636E-03   -0.4344929834108576E-05   -0.2724800475179343E+00   -0.4531920799453853E+00   -0.2686283914655373E-06    0.3506909918710166E-09   -0.9168707459927816E-12   -0.1040265096285964E-11    0.5428506810734035E-09
 -0.2797   0.5985    0.4924562625408192E-01    0.5957679407157213E-03   -0.2497839013257814E-05   -0.2101578782592524E+00   -0.5449847775932271E+00   -0.3210905554674782E-06    0.3481820196743479E-09   -0.1801815641133686E-11   -0.1048328091002304E-11    0.7305555604908420E-09
 -0.2867   0.5827    0.5294019735549216E-01    0.6501497670524046E-03   -0.9460171804846415E-06   -0.1455310477075701E+00   -0.5977883660003801E+00   -0.3498275625954622E-06    0.3423635340071146E-09   -0.3203277920693637E-11   -0.1032516953880513E-11    0.9594943312096760E-09
 -0.2945   0.5653    0.5563438335723118E-01    0.6678317453059856E-03   -0.1520054674149278E-06   -0.8158528634272294E-01   -0.6177605812884625E+00   -0.3586330349998590E-06    0.3311783393637920E-09   -0.5046664475205631E-11   -0.1043299561326316E-11    0.1232792035121832E-08
 -0.3029   0.5464    0.5699622386423269E-01    0.6768657803847256E-03   -0.4135460034371988E-06   -0.2137300736128068E-01   -0.6303439513752912E+00   -0.3626853017361265E-06    0.3121535153841407E-09   -0.7238326257819061E-11   -0.1000462733491414E-11    0.1544457423063861E-08
 -0.3120   0.5259    0.5684520156869551E-01    0.7186624810267642E-03   -0.1645958517771031E-05    0.3240233046787560E-01   -0.6733726260025612E+00   -0.3842971712271913E-06    0.2827553456132004E-09   -0.9611022047661955E-11   -0.9560147812281983E-12    0.1874900165677040E-08
 -0.3217   0.5041    0.5517833630710020E-01    0.8340325214284020E-03   -0.3526603829909863E-05    0.7777127550553378E-01   -0.7843257011487705E+00   -0.4454441505515960E-06    0.2408670485287701E-09   -0.1194774834623047E-10   -0.9378366139234373E-12    0.2187661121699769E-08
 -0.3320   0.4810    0.5214323818928421E-01    0.1051458927051741E-02   -0.5636482546118487E-05    0.1137771027282289E+00   -0.9895627737835471E+00   -0.5614156606710729E-06    0.1855401821765357E-09   -0.1398323123957823E-10   -0.9542262813244662E-12    0.2433793444556187E-08
 -0.3428   0.4567    0.4798048082176756E-01    0.1384581342993991E-02   -0.7723247546457283E-05    0.1405878060962669E+00   -0.1301850835986244E+01   -0.7395103881752432E-06    0.1173181066183027E-09   -0.1545718414375230E-10   -0.8716430355271143E-12    0.2563580119019360E-08
 -0.3541   0.4313    0.4297075157395070E-01    0.1837413038212389E-02   -0.9687963296000847E-05    0.1593873793223028E+00   -0.1725005136273326E+01   -0.9818656292351671E-06    0.3826956460062370E-10   -0.1610780259175826E-10   -0.8179637522864880E-12    0.2543168019925046E-08
 -0.3658   0.4050    0.3740759935692384E-01    0.2410009946799434E-02   -0.1153450123628718E-04    0.1720378529228975E+00   -0.2259013517361838E+01   -0.1288520505123138E-05   -0.4846548856685118E-10   -0.1561899914959142E-10   -0.7384093336781916E-12    0.2367698384575512E-08
 -0.3780   0.3777    0.3159142690779533E-01    0.3099666714456010E-02   -0.1322657471789104E-04    0.1806039999346465E+00   -0.2901152954886173E+01   -0.1658069166959682E-05   -0.1389989269517944E-09   -0.1362381388259060E-10   -0.7281814040638324E-12    0.2063508395405700E-08
 -0.3904   0.3498    0.2583274462193649E-01    0.3898500164146266E-02   -0.1469075251283987E-04    0.1869159111993052E+00   -0.3643809438695124E+01   -0.2086332771764600E-05   -0.2292858056196501E-09   -0.9809269715943536E-11   -0.6420142195651124E-12    0.1676802472913574E-08
 -0.4032   0.3212    0.2045468278238282E-01    0.4790640975175381E-02   -0.1580506588884000E-04    0.1923225241170685E+00   -0.4471940639495191E+01   -0.2564866925591480E-05   -0.3150775369775705E-09   -0.3948360735583911E-11   -0.5475342401695116E-12    0.1258335463659530E-08
 -0.4161   0.2920    0.1578904062604774E-01    0.5751157508831276E-02   -0.1646257677535311E-04    0.1976698462906281E+00   -0.5362139694956022E+01   -0.3080339302276012E-05   -0.3917882338000389E-09    0.3921758751079807E-11   -0.4897610095255800E-12    0.8483935346782767E-09
 -0.4292   0.2626    0.1216221087951664E-01    0.6747032741625913E-02   -0.1656997523504719E-04    0.2034222657959277E+00   -0.6283583318930845E+01   -0.3615084691830705E-05   -0.4545476529893566E-09    0.1348508804621673E-10   -0.4009848009189909E-12    0.4731424141368734E-09
 -0.4425   0.2328    0.9872360611882845E-02    0.7739484798182112E-02   -0.1607864241611432E-04    0.2098150100674961E+00   -0.7200220030244187E+01   -0.4148298472249063E-05   -0.4983105421352274E-09    0.2419664468789051E-10   -0.3214650767802141E-12    0.1454662952593555E-09
 -0.4558   0.2029    0.9162123084756052E-02    0.8686500118652515E-02   -0.1495344883201867E-04    0.2169690930599818E+00   -0.8073119262800507E+01   -0.4657445979978416E-05   -0.5184199736163464E-09    0.3532052428312227E-10   -0.2576827640154988E-12   -0.1310181928226850E-09
 -0.4691   0.1731    0.1019179503818443E-01    0.9544691815946018E-02   -0.1317524361689276E-04    0.2249552120589183E+00   -0.8862205693288281E+01   -0.5119201612427420E-05   -0.5112979761801029E-09    0.4608130543815037E-10   -0.1927277781810233E-12   -0.3566241789723645E-09
 -0.4823   0.1433    0.1301506422893115E-01    0.1027022019207522E-01   -0.1070829356193016E-04    0.2338212486900402E+00   -0.9527101539468218E+01   -0.5510006740219465E-05   -0.4750179624646300E-09    0.5573791428403752E-10   -0.1420322193190771E-12   -0.5343702147442286E-09
 -0.4955   0.1138    0.1755770555962225E-01    0.1081931654872145E-01   -0.7517227992098311E-05    0.2436008160219220E+00   -0.1002764086378020E+02   -0.5806277337586288E-05   -0.4096919730550708E-09    0.6369360594504769E-10   -0.1118688475187923E-12   -0.6677162286625182E-09
 -0.5084   0.0847    0.2359963215904782E-01    0.1114945792129585E-01   -0.3571145037719624E-05    0.2543137243183475E+00   -0.1032495574912135E+02   -0.5985109743885726E-05   -0.3176035554344758E-09    0.6943307040430113E-10   -0.1087099160690386E-12   -0.7607281714283598E-09
 -0.5212   0.0561    0.3076440241839960E-01    0.1122233932104378E-01    0.1102779176448739E-05    0.2659634187433886E+00   -0.1038425099082286E+02   -0.6025789919640633E-05   -0.2032023264930682E-09    0.7263400991774915E-10   -0.1255341317007996E-12   -0.8171629501535493E-09
 -0.5336   0.0281    0.3852426144766886E-01    0.1100925286790229E-01    0.6383554190369490E-05    0.2785335319982367E+00   -0.1017971827596859E+02   -0.5912784104256910E-05   -0.7284071956714655E-10    0.7311629079964632E-10   -0.1199422505759884E-12   -0.8412934099366609E-09
 -0.5457   0.0009    0.4623158384025366E-01    0.1049844059348947E-01    0.1200282883605920E-04    0.2919846732586208E+00   -0.9701264741961309E+01   -0.5639601829329961E-05    0.6570428923158289E-10    0.7085809716755875E-10   -0.1412411854140316E-12   -0.8369649365930210E-09
 -0.5575  -0.0255    0.5318391057606076E-01    0.9702550320304626E-02    0.1754792170792626E-04    0.3062522489509321E+00   -0.8961218655168649E+01   -0.5212945895977694E-05    0.2039232810391312E-09    0.6606737379399874E-10   -0.1682820549575581E-12   -0.8090063445542750E-09
 -0.5688  -0.0508    0.5871936258905917E-01    0.8663213961102565E-02    0.2249632238816925E-04    0.3212458002650472E+00   -0.7998424598408877E+01   -0.4655075751844314E-05    0.3336593223934869E-09    0.5917233369956421E-10   -0.1772887392448297E-12   -0.7618260952635403E-09
 -0.5796  -0.0751    0.6232332519843448E-01    0.7449718726496234E-02    0.2632547899202566E-04    0.3368497649477171E+00   -0.6876858566323704E+01   -0.4003258992488983E-05    0.4482415202899936E-09    0.5084316301307013E-10   -0.1700167784335349E-12   -0.7000879112539771E-09
 -0.5899  -0.0982    0.6371577107394086E-01    0.6150475021570729E-02    0.2863116312493605E-04    0.3529247644296464E+00   -0.5677796286584603E+01   -0.3305026054381763E-05    0.5433901453799628E-09    0.4185374269383146E-10   -0.1957045636657995E-12   -0.6286746193073789E-09
 -0.5996  -0.1201    0.6288946823275372E-01    0.4858903210389472E-02    0.2923883268457662E-04    0.3693078373294530E+00   -0.4486860116046628E+01   -0.2610743105567014E-05    0.6177172454102653E-09    0.3298744610802373E-10   -0.1618705169903478E-12   -0.5522044748546007E-09
 -0.6087  -0.1405    0.6008680101771094E-01    0.3658066373270453E-02    0.2823031564062950E-04    0.3858101011432027E+00   -0.3380100193633349E+01   -0.1965109077964133E-05    0.6723331891222983E-09    0.2489153327900340E-10   -0.1694755447090301E-12   -0.4741978042871464E-09
 -0.6171  -0.1594    0.5572690223545662E-01    0.2608961378834463E-02    0.2589955102052027E-04    0.4022116799838640E+00   -0.2413298266608150E+01   -0.1401065173767397E-05    0.7101244661744666E-09    0.1796687798538699E-10   -0.1977029651101248E-12   -0.3986637530511983E-09
 -0.6249  -0.1769    0.5031255170632348E-01    0.1745640070517290E-02    0.2263952032023506E-04    0.4182563156706115E+00   -0.1617642252260352E+01   -0.9368817961866192E-06    0.7346806982222454E-09    0.1237701607870179E-10   -0.1729727472365994E-12   -0.3269424297264178E-09
 -0.6319  -0.1926    0.4434729370407933E-01    0.1077149122896984E-02    0.1882915906835523E-04    0.4336506687526811E+00   -0.1001389850976134E+01   -0.5775266613658532E-06    0.7495239359722738E-09    0.8080387053910343E-11   -0.2071953719706698E-12   -0.2610886888632091E-09
 -0.6382  -0.2067    0.3828164708201563E-01    0.5938051179574626E-03    0.1475155375885386E-04    0.4480737971241547E+00   -0.5556820521439122E+00   -0.3176756672512277E-06    0.7576718662194448E-09    0.4932507961102894E-11   -0.1935118731921648E-12   -0.2016123275272452E-09
 -0.6437  -0.2191    0.3249048150684940E-01    0.2741596470602569E-03    0.1058707992777408E-04    0.4611990545788165E+00   -0.2606725523984918E+00   -0.1459421186875459E-06    0.7614379161913210E-09    0.2758373390809865E-11   -0.2167849233458696E-12   -0.1493592593354576E-09
 -0.6484  -0.2296    0.2727183135740201E-01    0.8989878890839511E-04    0.6488502318703242E-05    0.4727244021403872E+00   -0.9014189423618232E-01   -0.4696554193479888E-07    0.7626838709196004E-09    0.1391112919302273E-11   -0.2343750193922745E-12   -0.1045018091158645E-09
 -0.6522  -0.2383    0.2285143477677543E-01    0.7503455253990680E-05    0.2747983889043911E-05    0.4824013574988682E+00   -0.1275529733511545E-01   -0.3010778004935132E-08    0.7628424020938995E-09    0.6731282198302324E-12   -0.2606387328185633E-12   -0.6719989408682236E-10
 -0.6553  -0.2451    0.1938038359955513E-01   -0.1113343568216950E-04   -0.7577219671360998E-07    0.4900517295833317E+00    0.6740629840089661E-02    0.6673220168505969E-08    0.7629435758765217E-09    0.4011426607553048E-12   -0.2802534680018676E-12   -0.3829173957081711E-10
 -0.6574  -0.2499    0.1692402150222605E-01   -0.4921591070698129E-05   -0.1182094394840493E-05    0.4955665261629469E+00    0.3936115658983973E-02    0.2694713214829787E-08    0.7637662152032432E-09    0.3641956528022128E-12   -0.2952954721024970E-12   -0.1707772031428467E-10
 -0.6587  -0.2529    0.1546643472535515E-01   -0.2007150294661500E-06   -0.2007377706160395E-06    0.4988902037620571E+00    0.6997000366658888E-03    0.1710970618570644E-09    0.7650750035673864E-09    0.1780409045019915E-12   -0.2028334097903262E-12   -0.4133759849180019E-11
 -0.6592  -0.2538    0.1498108566618066E-01    0.0000000000000000E+00    0.0000000000000000E+00    0.5000000000000000E+00   -0.5865655108168883E-04    0.0000000000000000E+00    0.0000000000000000E+00    0.0000000000000000E+00    0.0000000000000000E+00    0.0000000000000000E+00
 -0.2495   0.6584    0.2606448006728604E-01    0.0000000000000000E+00    0.0000000000000000E+00   -0.5000000000000000E+00   -0.4547019246528351E-02    0.0000000000000000E+00    0.0000000000000000E+00    0.0000000000000000E+00    0.0000000000000000E+00    0.0000000000000000E+00
 -0.2499   0.6574    0.2654173740570989E-01    0.2011160006284903E-05   -0.6218085128399650E-05   -0.4951468870513545E+00   -0.7493708690537094E-02   -0.3065440085424141E-08    0.3619720534593640E-09   -0.1088680984554988E-11   -0.1475052718857839E-11    0.1052388937713283E-10
 -0.2512   0.6545    0.2794323550988417E-01    0.3153809502483981E-04   -0.3154229702284246E-04   -0.4806110549026305E+00   -0.1609956701773672E-01   -0.6264677536698407E-07    0.3599405044851789E-09   -0.3159598125669627E-11   -0.3584747082507889E-11    0.4233299344749697E-10
 -0.2534   0.6496    0.3019646801519905E-01    0.1527806484502036E-03   -0.6747436110574302E-04   -0.4564800371590871E+00   -0.3826647996513530E-01   -0.3334113972473601E-06    0.3566909857755096E-09   -0.4043021126221014E-11   -0.4409077269951212E-11    0.9506619103039071E-10
 -0.2564   0.6428    0.3321722831731012E-01    0.4244657424901122E-03   -0.9347218421804826E-04   -0.4229606722400298E+00   -0.8905625998823681E-01   -0.9460950093814589E-06    0.3539123577533942E-09   -0.3580231597299921E-11   -0.4588066038202498E-11    0.1695279368274516E-09
 -0.2603   0.6342    0.3689394741728105E-01    0.8453252305913802E-03   -0.1009468401908956E-03   -0.3804813909746720E+00   -0.1728746054815060E+00   -0.1885938308440539E-05    0.3521246558224611E-09   -0.2856249958771429E-11   -0.4441211287620206E-11    0.2669128876253701E-09
 -0.2650   0.6236    0.4104253402584704E-01    0.1351864604760405E-02   -0.9073231948495546E-04   -0.3298393805750179E+00   -0.2792206821117852E+00   -0.3003614398720216E-05    0.3509927140599167E-09   -0.2933493725709724E-11   -0.4206735654266325E-11    0.3901338210821059E-09
 -0.2705   0.6113    0.4538537528120005E-01    0.1847799403688139E-02   -0.6829944640479899E-04   -0.2723607585728363E+00   -0.3885179785686151E+00   -0.4083609111925497E-05    0.3496213180076424E-09   -0.4619735149979931E-11   -0.3927073943810200E-11    0.5424718313440380E-09
 -0.2767   0.5972    0.4955911978936560E-01    0.2241082369699731E-02   -0.4110465402865553E-04   -0.2100078661559333E+00   -0.4809037243974829E+00   -0.4923628414248975E-05    0.3466617999603461E-09   -0.8264139372826662E-11   -0.3693309547081469E-11    0.7302053892099813E-09