 title="result"
 variables="x","y","P","u","v","t","omega","psi","RES1","RES2","RES3","RES4"
zone,j= 49,i= 49,f=point
 -0.3049   0.6380    0.2544127436280228E-01    0.0000000000000000E+00    0.0000000000000000E+00   -0.5000000000000000E+00    0.0000000000000000E+00    0.0000000000000000E+00    0.0000000000000000E+00    0.0000000000000000E+00    0.0000000000000000E+00    0.0000000000000000E+00
 -0.3053   0.6370    0.2594284847942597E-01    0.0000000000000000E+00    0.0000000000000000E+00   -0.4953555142760784E+00    0.1790054368828504E-03    0.0000000000000000E+00    0.0000000000000000E+00    0.0000000000000000E+00    0.0000000000000000E+00    0.0000000000000000E+00
 -0.3064   0.6339    0.2740701920523213E-01    0.0000000000000000E+00    0.0000000000000000E+00   -0.4814444533918966E+00   -0.4348251965464100E-02    0.0000000000000000E+00    0.0000000000000000E+00    0.0000000000000000E+00    0.0000000000000000E+00    0.0000000000000000E+00
 -0.3081   0.6289    0.2976222710343500E-01    0.0000000000000000E+00    0.0000000000000000E+00   -0.4583492231630375E+00   -0.2863309649289629E-01    0.0000000000000000E+00    0.0000000000000000E+00    0.0000000000000000E+00    0.0000000000000000E+00    0.0000000000000000E+00
 -0.3106   0.6219    0.3292943893663181E-01    0.0000000000000000E+00    0.0000000000000000E+00   -0.4262598155048877E+00   -0.7963264496883751E-01    0.0000000000000000E+00    0.0000000000000000E+00    0.0000000000000000E+00    0.0000000000000000E+00    0.0000000000000000E+00
 -0.3138   0.6130    0.3677087267458508E-01    0.0000000000000000E+00    0.0000000000000000E+00   -0.3855578528030603E+00   -0.1512005032403297E+00    0.0000000000000000E+00    0.0000000000000000E+00    0.0000000000000000E+00    0.0000000000000000E+00    0.0000000000000000E+00
 -0.3176   0.6021    0.4106561944709228E-01    0.0000000000000000E+00    0.0000000000000000E+00   -0.3369346327885768E+00   -0.2299748657947098E+00    0.0000000000000000E+00    0.0000000000000000E+00    0.0000000000000000E+00    0.0000000000000000E+00    0.0000000000000000E+00
 -0.3221   0.5894    0.4551018369500200E-01    0.0000000000000000E+00    0.0000000000000000E+00   -0.2815231418256093E+00   -0.3005715149643308E+00    0.0000000000000000E+00    0.0000000000000000E+00    0.0000000000000000E+00    0.0000000000000000E+00    0.0000000000000000E+00
 -0.3272   0.5748    0.4973274820075653E-01    0.0000000000000000E+00    0.0000000000000000E+00   -0.2210028103722990E+00   -0.3510898530932134E+00    0.0000000000000000E+00    0.0000000000000000E+00    0.0000000000000000E+00    0.0000000000000000E+00    0.0000000000000000E+00
 -0.3330   0.5585    0.5332694546543837E-01    0.0000000000000000E+00    0.0000000000000000E+00   -0.1576231432850203E+00   -0.3786445677675523E+00    0.0000000000000000E+00    0.0000000000000000E+00    0.0000000000000000E+00    0.0000000000000000E+00    0.0000000000000000E+00
 -0.3393   0.5405    0.5590351584212209E-01    0.0000000000000000E+00    0.0000000000000000E+00   -0.9410109687295157E-01   -0.3938213491405330E+00    0.0000000000000000E+00    0.0000000000000000E+00    0.0000000000000000E+00    0.0000000000000000E+00    0.0000000000000000E+00
 -0.3463   0.5210    0.5715493475204621E-01    0.0000000000000000E+00    0.0000000000000000E+00   -0.3337931032621803E-01   -0.4209503159824655E+00    0.0000000000000000E+00    0.0000000000000000E+00    0.0000000000000000E+00    0.0000000000000000E+00    0.0000000000000000E+00
 -0.3537   0.4999    0.5691123691295309E-01    0.0000000000000000E+00    0.0000000000000000E+00    0.2172777057244819E-01   -0.4922007740350433E+00    0.0000000000000000E+00    0.0000000000000000E+00    0.0000000000000000E+00    0.0000000000000000E+00    0.0000000000000000E+00
 -0.3617   0.4774    0.5516317806868258E-01    0.0000000000000000E+00    0.0000000000000000E+00    0.6894310420710267E-01   -0.6377485070186394E+00    0.0000000000000000E+00    0.0000000000000000E+00    0.0000000000000000E+00    0.0000000000000000E+00    0.0000000000000000E+00
 -0.3701   0.4535    0.5204235615647963E-01    0.0000000000000000E+00    0.0000000000000000E+00    0.1069114342615635E+00   -0.8781597846752559E+00    0.0000000000000000E+00    0.0000000000000000E+00    0.0000000000000000E+00    0.0000000000000000E+00    0.0000000000000000E+00
 -0.3789   0.4284    0.4777531491835514E-01    0.0000000000000000E+00    0.0000000000000000E+00    0.1354490740914997E+00   -0.1223575967137821E+01    0.0000000000000000E+00    0.0000000000000000E+00    0.0000000000000000E+00    0.0000000000000000E+00    0.0000000000000000E+00
 -0.3882   0.4022    0.4263901975132581E-01    0.0000000000000000E+00    0.0000000000000000E+00    0.1555384760442658E+00   -0.1677979364120886E+01    0.0000000000000000E+00    0.0000000000000000E+00    0.0000000000000000E+00    0.0000000000000000E+00    0.0000000000000000E+00
 -0.3978   0.3750    0.3693440363644875E-01    0.0000000000000000E+00    0.0000000000000000E+00    0.1690141900327070E+00   -0.2242902791548892E+01    0.0000000000000000E+00    0.0000000000000000E+00    0.0000000000000000E+00    0.0000000000000000E+00    0.0000000000000000E+00
 -0.4077   0.3469    0.3097649540370157E-01    0.0000000000000000E+00    0.0000000000000000E+00    0.1780360980287935E+00   -0.2917212621243325E+01    0.0000000000000000E+00    0.0000000000000000E+00    0.0000000000000000E+00    0.0000000000000000E+00    0.0000000000000000E+00
 -0.4179   0.3181    0.2509336079131856E-01    0.0000000000000000E+00    0.0000000000000000E+00    0.1845706527320540E+00   -0.3694120418517216E+01    0.0000000000000000E+00    0.0000000000000000E+00    0.0000000000000000E+00    0.0000000000000000E+00    0.0000000000000000E+00
 -0.4284   0.2885    0.1962579454794519E-01    0.0000000000000000E+00    0.0000000000000000E+00    0.1900825508985580E+00   -0.4558275237098209E+01    0.0000000000000000E+00    0.0000000000000000E+00    0.0000000000000000E+00    0.0000000000000000E+00    0.0000000000000000E+00
 -0.4390   0.2585    0.1492114405330073E-01    0.0000000000000000E+00    0.0000000000000000E+00    0.1954905389156625E+00   -0.5484763991334980E+01    0.0000000000000000E+00    0.0000000000000000E+00    0.0000000000000000E+00    0.0000000000000000E+00    0.0000000000000000E+00
 -0.4497   0.2281    0.1131681006539740E-01    0.0000000000000000E+00    0.0000000000000000E+00    0.2012951130499705E+00   -0.6440259344098167E+01    0.0000000000000000E+00    0.0000000000000000E+00    0.0000000000000000E+00    0.0000000000000000E+00    0.0000000000000000E+00
 -0.4606   0.1974    0.9114567459070034E-02    0.0000000000000000E+00    0.0000000000000000E+00    0.2077462054824514E+00   -0.7385555887537445E+01    0.0000000000000000E+00    0.0000000000000000E+00    0.0000000000000000E+00    0.0000000000000000E+00    0.0000000000000000E+00
 -0.4715   0.1665    0.8550637655391361E-02    0.0000000000000000E+00    0.0000000000000000E+00    0.2149699561695617E+00   -0.8278337735860800E+01    0.0000000000000000E+00    0.0000000000000000E+00    0.0000000000000000E+00    0.0000000000000000E+00    0.0000000000000000E+00
 -0.4823   0.1357    0.9766950868176702E-02    0.0000000000000000E+00    0.0000000000000000E+00    0.2230386342107795E+00   -0.9075294554945593E+01    0.0000000000000000E+00    0.0000000000000000E+00    0.0000000000000000E+00    0.0000000000000000E+00    0.0000000000000000E+00
 -0.4932   0.1050    0.1278626386809036E-01    0.0000000000000000E+00    0.0000000000000000E+00    0.2320003651443697E+00   -0.9733367975877190E+01    0.0000000000000000E+00    0.0000000000000000E+00    0.0000000000000000E+00    0.0000000000000000E+00    0.0000000000000000E+00
 -0.5039   0.0745    0.1749196585112334E-01    0.0000000000000000E+00    0.0000000000000000E+00    0.2418882518968533E+00   -0.1021068460437953E+02    0.0000000000000000E+00    0.0000000000000000E+00    0.0000000000000000E+00    0.0000000000000000E+00    0.0000000000000000E+00
 -0.5146   0.0445    0.2361380322472584E-01    0.0000000000000000E+00    0.0000000000000000E+00    0.2527209084743940E+00   -0.1046817188215674E+02    0.0000000000000000E+00    0.0000000000000000E+00    0.0000000000000000E+00    0.0000000000000000E+00    0.0000000000000000E+00
 -0.5250   0.0150    0.3072410317038826E-01    0.0000000000000000E+00    0.0000000000000000E+00    0.2644999063423004E+00   -0.1047283615488665E+02    0.0000000000000000E+00    0.0000000000000000E+00    0.0000000000000000E+00    0.0000000000000000E+00    0.0000000000000000E+00
 -0.5352  -0.0139    0.3825263709892512E-01    0.0000000000000000E+00    0.0000000000000000E+00    0.2772064275243064E+00   -0.1020305858301627E+02    0.0000000000000000E+00    0.0000000000000000E+00    0.0000000000000000E+00    0.0000000000000000E+00    0.0000000000000000E+00
 -0.5451  -0.0420    0.4552923437102392E-01    0.0000000000000000E+00    0.0000000000000000E+00    0.2907982837453155E+00   -0.9655209168869503E+01    0.0000000000000000E+00    0.0000000000000000E+00    0.0000000000000000E+00    0.0000000000000000E+00    0.0000000000000000E+00
 -0.5547  -0.0692    0.5185807855712316E-01    0.0000000000000000E+00    0.0000000000000000E+00    0.3052080639116928E+00   -0.8849610593282410E+01    0.0000000000000000E+00    0.0000000000000000E+00    0.0000000000000000E+00    0.0000000000000000E+00    0.0000000000000000E+00
 -0.5640  -0.0954    0.5661597631009949E-01    0.0000000000000000E+00    0.0000000000000000E+00    0.3203427926289058E+00   -0.7833116796591089E+01    0.0000000000000000E+00    0.0000000000000000E+00    0.0000000000000000E+00    0.0000000000000000E+00    0.0000000000000000E+00
 -0.5728  -0.1205    0.5935273688331931E-01    0.0000000000000000E+00    0.0000000000000000E+00    0.3360848585638483E+00   -0.6675929782715613E+01    0.0000000000000000E+00    0.0000000000000000E+00    0.0000000000000000E+00    0.0000000000000000E+00    0.0000000000000000E+00
 -0.5812  -0.1443    0.5986372879225193E-01    0.0000000000000000E+00    0.0000000000000000E+00    0.3522931838734613E+00   -0.5462185837534836E+01    0.0000000000000000E+00    0.0000000000000000E+00    0.0000000000000000E+00    0.0000000000000000E+00    0.0000000000000000E+00
 -0.5892  -0.1669    0.5821028709106525E-01    0.0000000000000000E+00    0.0000000000000000E+00    0.3688030456103280E+00   -0.4276480802504746E+01    0.0000000000000000E+00    0.0000000000000000E+00    0.0000000000000000E+00    0.0000000000000000E+00    0.0000000000000000E+00
 -0.5967  -0.1879    0.5468248178439722E-01    0.0000000000000000E+00    0.0000000000000000E+00    0.3854232215947295E+00   -0.3190527556642588E+01    0.0000000000000000E+00    0.0000000000000000E+00    0.0000000000000000E+00    0.0000000000000000E+00    0.0000000000000000E+00
 -0.6036  -0.2075    0.4972097223081328E-01    0.0000000000000000E+00    0.0000000000000000E+00    0.4019306673895661E+00   -0.2254056931315258E+01    0.0000000000000000E+00    0.0000000000000000E+00    0.0000000000000000E+00    0.0000000000000000E+00    0.0000000000000000E+00
 -0.6099  -0.2255    0.4382724254616861E-01    0.0000000000000000E+00    0.0000000000000000E+00    0.4180654991978577E+00   -0.1492126132548294E+01    0.0000000000000000E+00    0.0000000000000000E+00    0.0000000000000000E+00    0.0000000000000000E+00    0.0000000000000000E+00
 -0.6157  -0.2418    0.3748927815748213E-01    0.0000000000000000E+00    0.0000000000000000E+00    0.4335313410514338E+00   -0.9081571674347862E+00    0.0000000000000000E+00    0.0000000000000000E+00    0.0000000000000000E+00    0.0000000000000000E+00    0.0000000000000000E+00
 -0.6208  -0.2563    0.3113657032829390E-01    0.0000000000000000E+00    0.0000000000000000E+00    0.4480060896058385E+00   -0.4901848563635276E+00    0.0000000000000000E+00    0.0000000000000000E+00    0.0000000000000000E+00    0.0000000000000000E+00    0.0000000000000000E+00
 -0.6253  -0.2691    0.2512387493362827E-01    0.0000000000000000E+00    0.0000000000000000E+00    0.4611645905747889E+00   -0.2170944053205401E+00    0.0000000000000000E+00    0.0000000000000000E+00    0.0000000000000000E+00    0.0000000000000000E+00    0.0000000000000000E+00
 -0.6291  -0.2799    0.1973288235930463E-01    0.0000000000000000E+00    0.0000000000000000E+00    0.4727086563331425E+00   -0.6271508584792641E-01    0.0000000000000000E+00    0.0000000000000000E+00    0.0000000000000000E+00    0.0000000000000000E+00    0.0000000000000000E+00
 -0.6323  -0.2889    0.1517775117310045E-01    0.0000000000000000E+00    0.0000000000000000E+00    0.4823947271920155E+00    0.3088969159676824E-02    0.0000000000000000E+00    0.0000000000000000E+00    0.0000000000000000E+00    0.0000000000000000E+00    0.0000000000000000E+00
 -0.6348  -0.2959    0.1160320700243841E-01    0.0000000000000000E+00    0.0000000000000000E+00    0.4900490362391158E+00    0.1407029455287499E-01    0.0000000000000000E+00    0.0000000000000000E+00    0.0000000000000000E+00    0.0000000000000000E+00    0.0000000000000000E+00
 -0.6366  -0.3009    0.9074592063413694E-02    0.0000000000000000E+00    0.0000000000000000E+00    0.4955655111562322E+00    0.4985110442340048E-02    0.0000000000000000E+00    0.0000000000000000E+00    0.0000000000000000E+00    0.0000000000000000E+00    0.0000000000000000E+00
 -0.6376  -0.3039    0.7573463701941999E-02    0.0000000000000000E+00    0.0000000000000000E+00    0.4988899605944272E+00   -0.7610394810206223E-04    0.0000000000000000E+00    0.0000000000000000E+00    0.0000000000000000E+00    0.0000000000000000E+00    0.0000000000000000E+00
 -0.6380  -0.3049    0.7072367189199657E-02    0.0000000000000000E+00    0.0000000000000000E+00    0.5000000000000000E+00    0.0000000000000000E+00    0.0000000000000000E+00    0.0000000000000000E+00    0.0000000000000000E+00    0.0000000000000000E+00    0.0000000000000000E+00
 -0.3039   0.6376    0.2562032903858319E-01    0.0000000000000000E+00    0.0000000000000000E+00   -0.5000000000000000E+00    0.1789926468913794E-03    0.0000000000000000E+00    0.0000000000000000E+00    0.0000000000000000E+00    0.0000000000000000E+00    0.0000000000000000E+00
 -0.3043   0.6366    0.2612107676440760E-01    0.9902276813265288E-07   -0.9901622444135480E-07   -0.4953553888756013E+00   -0.6002578957115039E-03   -0.5893838335948164E-10   -0.1500077383761057E-08    0.1137844159171397E-12    0.1433380324156186E-12    0.5306010188513288E-11
 -0.3054   0.6336    0.2758601271331492E-01    0.5366794044108730E-05   -0.1618456594488454E-05   -0.4814439468463954E+00   -0.5992213891667256E-02   -0.2719404916053662E-08   -0.1499343292316740E-08    0.1993203779110386E-12    0.2079803343435493E-12    0.1932780281307944E-10
 -0.3071   0.6286    0.2994143381809480E-01    0.2999179553869174E-04   -0.3280545956842234E-05   -0.4583480526525494E+00   -0.2753706961019192E-01   -0.1621187414509654E-07   -0.1499581010581952E-08    0.2177706799610934E-12    0.1839639551803884E-12    0.4248915021903832E-10
 -0.3096   0.6216    0.3310173086592218E-01    0.8200769559304589E-04   -0.4135615331021329E-05   -0.4262576556635973E+00   -0.7370835591622432E-01   -0.4444874428090106E-07   -0.1501346495909328E-08    0.6293559423609096E-12    0.1480100764172931E-12    0.7468406969246555E-10
 -0.3128   0.6126    0.3692870614015619E-01    0.1560850146512045E-03   -0.4165798144145147E-05   -0.3855543578572824E+00   -0.1404830060847090E+00   -0.8457905381747994E-07   -0.1503908807383436E-08    0.1767051782675111E-11    0.1138256155996942E-12    0.1123166143424115E-09
 -0.3166   0.6017    0.4120295327071262E-01    0.2386158306369883E-03   -0.3489159808263699E-05   -0.3369294913405137E+00   -0.2158904577496298E+00   -0.1290530381474606E-06   -0.1505989258646090E-08    0.3762302969168019E-11    0.8846395838091325E-13    0.1506654870309099E-09
 -0.3211   0.5890    0.4562271260230590E-01    0.3135976640671691E-03   -0.2459611052449390E-05   -0.2815161521897945E+00   -0.2853644280307337E+00   -0.1693102893882237E-06   -0.1506065650663801E-08    0.6477332559207127E-11    0.1040886127290364E-12    0.1781673489298363E-09
 -0.3262   0.5745    0.4981846519424792E-01    0.3684996516665971E-03   -0.1379122758129597E-05   -0.2209939559050304E+00   -0.3374208124264800E+00   -0.1985411916348004E-06   -0.1502806511177734E-08    0.9588878302491111E-11    0.8870335022059805E-13    0.1784431838403044E-09
 -0.3320   0.5582    0.5338641188861337E-01    0.4001859060839975E-03   -0.6357504431407652E-06   -0.1576126402307162E+00   -0.3690636228750863E+00   -0.2151229674133797E-06   -0.1495024351061761E-08    0.1269054653030288E-10    0.1112660311108904E-12    0.1270946958786823E-09
 -0.3383   0.5402    0.5593983296863156E-01    0.4196337759714736E-03   -0.5258507429727014E-06   -0.9408939462322068E-01   -0.3902269994467344E+00   -0.2249585563420351E-06   -0.1481485058544771E-08    0.1541926308856745E-10    0.1444968276975711E-12   -0.3861827524431760E-11
 -0.3453   0.5206    0.5717301233957971E-01    0.4522836188206256E-03   -0.1220175383793928E-05   -0.3336704584482154E-01   -0.4240945763853841E+00   -0.2417994575713500E-06   -0.1460506234181314E-08    0.1754386566577004E-10    0.1683800668339508E-12   -0.2402490706376881E-09
 -0.3527   0.4995    0.5691658548383441E-01    0.5319097138491585E-03   -0.2621476279402155E-05    0.2173984568779913E-01   -0.5016005958020842E+00   -0.2838220555327957E-06   -0.1429584659852490E-08    0.1897739951295385E-10    0.1988617603920773E-12   -0.5978285505525704E-09
 -0.3607   0.4770    0.5516078991338163E-01    0.6903396688292836E-03   -0.4469642429069004E-05    0.6895421377478800E-01   -0.6520241779676382E+00   -0.3681620687023050E-06   -0.1385346618670846E-08    0.1973793350984465E-10    0.2623769257414921E-12   -0.1074877950535402E-08
 -0.3691   0.4532    0.5203625171656579E-01    0.9494116165229738E-03   -0.6459055959565666E-05    0.1069208929446776E+00   -0.8956047036052376E+00   -0.5065306490580650E-06   -0.1323856406443280E-08    0.1984686720524209E-10    0.3064423714782549E-12   -0.1646701851265586E-08
 -0.3779   0.4281    0.4776869818612626E-01    0.1319994289762277E-02   -0.8419173368729138E-05    0.1354564254242368E+00   -0.1242505757499047E+01   -0.7047505379365061E-06   -0.1241579089539258E-08    0.1925124643031850E-10    0.3583106034099615E-12   -0.2265109433352563E-08
 -0.3872   0.4019    0.4263450072554580E-01    0.1806349430048801E-02   -0.1029473830070015E-04    0.1555436038166974E+00   -0.1696711034108006E+01   -0.9650994127304499E-06   -0.1136353042913152E-08    0.1776999380975752E-10    0.4374348105962156E-12   -0.2867420752228345E-08
 -0.3968   0.3747    0.3693391158085032E-01    0.2409978115411376E-02   -0.1208731818602564E-04    0.1690173288276706E+00   -0.2259490549400966E+01   -0.1288407177290344E-05   -0.1008274377184426E-08    0.1511013536514838E-10    0.4896846816926370E-12   -0.3391102270516866E-08
 -0.4067   0.3466    0.3098096859193313E-01    0.3129401137864923E-02   -0.1374767034089018E-04    0.1780377170742378E+00   -0.2929214215156401E+01   -0.1673929983894586E-05   -0.8600717256446178E-09    0.1091042187151281E-10    0.5404982017509496E-12   -0.3789614660271168E-08
 -0.4169   0.3177    0.2510253328497768E-01    0.3957044723611699E-02   -0.1517854304982954E-04    0.1845712742305572E+00   -0.3698519876597103E+01   -0.2117665924045380E-05   -0.6969247713650706E-09    0.4793623831211846E-11    0.6300515664747763E-12   -0.4043455035639826E-08
 -0.4273   0.2882    0.1963821276327728E-01    0.4876222127188459E-02   -0.1624104575278511E-04    0.1900826023146051E+00   -0.4551582896005835E+01   -0.2610732546473893E-05   -0.5261220036023584E-09   -0.3550916505279389E-11    0.6653566586578563E-12   -0.4158602004964741E-08
 -0.4380   0.2581    0.1493439817690099E-01    0.5860137064711324E-02   -0.1681079587449195E-04    0.1954902958788058E+00   -0.5463256034406261E+01   -0.3138803249833708E-05   -0.3564995937344051E-09   -0.1423914458564823E-10    0.7425032810814969E-12   -0.4158392585568854E-08
 -0.4487   0.2277    0.1132783636072933E-01    0.6873158798951333E-02   -0.1678784576447079E-04    0.2012947189910488E+00   -0.6400299293463129E+01   -0.3682805093510710E-05   -0.1980071176466147E-09   -0.2711578184211305E-10    0.7628758735833685E-12   -0.4072103342023237E-08
 -0.4596   0.1970    0.9119941671884074E-02    0.7873548704024643E-02   -0.1611913902987587E-04    0.2077457204138491E+00   -0.7323943687048123E+01   -0.4220346283253971E-05   -0.6094125551414642E-10   -0.4168748679589385E-10    0.7626399511906357E-12   -0.3927763125161077E-08
 -0.4704   0.1662    0.8546755225327428E-02    0.8816411344903607E-02   -0.1477430347468769E-04    0.2149693987282373E+00   -0.8192628211122523E+01   -0.4727333925377373E-05    0.4498194872137873E-10   -0.5714742568052600E-10    0.7606970608975416E-12   -0.3746547604273343E-08
 -0.4813   0.1353    0.9750112760596825E-02    0.9655938849803040E-02   -0.1274070502449408E-04    0.2230380063637062E+00   -0.8964087332840242E+01   -0.5179136852979502E-05    0.1117393608196515E-09   -0.7245976041403424E-10    0.6583622536027178E-12   -0.3544717261036445E-08
 -0.4922   0.1046    0.1275266738191607E-01    0.1034673438380265E-01   -0.9998457596863821E-05    0.2319996636104661E+00   -0.9596564425833654E+01   -0.5551344611573398E-05    0.1340979098596318E-09   -0.8642209170517390E-10    0.6013523012882160E-12   -0.3332688108120818E-08
 -0.5029   0.0742    0.1743772528765367E-01    0.1084480780857995E-01   -0.6533688806522171E-05    0.2418874727643857E+00   -0.1004975404264022E+02   -0.5820245754369308E-05    0.1105923096156314E-09   -0.9782796794866044E-10    0.4798661468186083E-12   -0.3117925691936696E-08
 -0.5135   0.0441    0.2353505341223751E-01    0.1110929695765054E-01   -0.2349903852357852E-05    0.2527200490866798E+00   -0.1028638452758715E+02   -0.5963813086412952E-05    0.4418338438172409E-10   -0.1055461273935521E-09    0.3151454791572306E-12   -0.2905311432405133E-08
 -0.5240   0.0146    0.3061731840075015E-01    0.1110592844287205E-01    0.2484023975184827E-05    0.2644989661354274E+00   -0.1027542563544068E+02   -0.5963494831204166E-05   -0.5751936340420150E-10   -0.1086683520945542E-09    0.1365140639419948E-12   -0.2697747313734622E-08
 -0.5342  -0.0143    0.3811513508942650E-01    0.1081257375355427E-01    0.7799527168721409E-05    0.2772054082344332E+00   -0.9997149754028191E+01   -0.5807287276659060E-05   -0.1827097102086173E-09   -0.1066640109570471E-09   -0.6717543188372588E-13   -0.2496410567848217E-08
 -0.5441  -0.0424    0.4535985532315467E-01    0.1022613972736644E-01    0.1329055047826837E-04    0.2907971889330614E+00   -0.9449416744295918E+01   -0.5493369133444764E-05   -0.3167369769241368E-09   -0.9950251733670257E-10   -0.2366995488500834E-12   -0.2301944480517792E-08
 -0.5537  -0.0696    0.5165779370663386E-01    0.9368726881438992E-02    0.1852866965771024E-04    0.3052068977345795E+00   -0.8653185131927906E+01   -0.5033536537697855E-05   -0.4441685075295965E-09   -0.8775874471567136E-10   -0.4397870956296401E-12   -0.2113541161530286E-08
 -0.5630  -0.0958    0.5638824862842055E-01    0.8290203682647410E-02    0.2301365884574479E-04    0.3203415580697279E+00   -0.7654776387649257E+01   -0.4454503596704018E-05   -0.5515967821390078E-09   -0.7267919599485140E-10   -0.5936501290548790E-12   -0.1930269631633674E-08
 -0.5718  -0.1208    0.5910333543893465E-01    0.7064757938387687E-02    0.2628315736213928E-04    0.3360835558036535E+00   -0.6522576081711996E+01   -0.3796188137210532E-05   -0.6300965305072737E-09   -0.5598294050557229E-10   -0.7179812300250887E-12   -0.1750534826469585E-08
 -0.5802  -0.1447    0.5960003063213606E-01    0.5780973829240495E-02    0.2802022722836684E-04    0.3522918099741565E+00   -0.5337954097974534E+01   -0.3106231672479468E-05   -0.6768433938320051E-09   -0.3953887217633678E-10   -0.7631117959761013E-12   -0.1572719727019334E-08
 -0.5882  -0.1672    0.5794014072093872E-01    0.4527732854049176E-02    0.2813851408448636E-04    0.3688015968177353E+00   -0.4182347635566773E+01   -0.2432554890947238E-05   -0.6948487063507258E-09   -0.2496419737596511E-10   -0.8087142067125797E-12   -0.1396370189615803E-08
 -0.5956  -0.1883    0.5441309340938369E-01    0.3380296637861741E-02    0.2678430108641921E-04    0.3854216989986339E+00   -0.3124664576738649E+01   -0.1815659200007342E-05   -0.6911091629535626E-09   -0.1337083221919499E-10   -0.8013728569622458E-12   -0.1221106363594182E-08
 -0.6026  -0.2079    0.4945804321663820E-01    0.2390844164013379E-02    0.2427754134752173E-04    0.4019290852036209E+00   -0.2212633208060147E+01   -0.1283724429415076E-05   -0.6742208041865538E-09   -0.5140651793134055E-11   -0.7836786775072824E-12   -0.1047864090636397E-08
 -0.6089  -0.2258    0.4357470910452554E-01    0.1585678047383616E-02    0.2099979018902503E-04    0.4180638928757294E+00   -0.1470360482362519E+01   -0.8508503798261242E-06   -0.6520343570626252E-09   -0.7183142969324763E-13   -0.7290418269079169E-12   -0.8777412130456241E-09
 -0.6147  -0.2421    0.3724946246313107E-01    0.9684013938626121E-03    0.1729701419199626E-04    0.4335297708677275E+00   -0.9011249848299293E+00   -0.5190626679914118E-06   -0.6303464972212680E-09    0.2454508818416912E-11   -0.7167461069101932E-12   -0.7138516791571625E-09
 -0.6198  -0.2567    0.3091073182321778E-01    0.5264049023304159E-03    0.1341295404437830E-04    0.4480046355758195E+00   -0.4933765766289992E+00   -0.2814724366351024E-06   -0.6123979205685526E-09    0.3221664254815515E-11   -0.6548303566056290E-12   -0.5597719961170089E-09
 -0.6243  -0.2694    0.2491259704277028E-01    0.2373502778489276E-03    0.9500595221455632E-05    0.4611633374045296E+00   -0.2264466784092477E+00   -0.1262038551540593E-06   -0.5993579729746124E-09    0.2962036865783446E-11   -0.6323552792508735E-12   -0.4189060053699789E-09
 -0.6281  -0.2803    0.1953620537371174E-01    0.7338032547948126E-04    0.5693052797989070E-05    0.4727076717638672E+00   -0.7453294834585047E-01   -0.3815574809985734E-07   -0.5910078121340590E-09    0.2288624151303154E-11   -0.6144043607214655E-12   -0.2947247315990276E-09
 -0.6313  -0.2892    0.1499442409174775E-01    0.2343124765155364E-05    0.2270164086589541E-05    0.4823940414621654E+00   -0.7590545703635815E-02   -0.3062588510227570E-09   -0.5861260487377562E-09    0.1605455351993967E-11   -0.6323275236752579E-12   -0.1904376682390629E-09
 -0.6338  -0.2962    0.1142931274797277E-01   -0.1169418145135713E-04   -0.2539706558640218E-06    0.4900486317792060E+00    0.7594693691604438E-02    0.6912373451570303E-08   -0.5832624590013276E-09    0.1144162889432643E-11   -0.6107690850472303E-12   -0.1074772389142442E-09
 -0.6355  -0.3013    0.8901920215069685E-02   -0.4701635417045847E-05   -0.1155685289587212E-05    0.4955653280032095E+00    0.3872535008388470E-02    0.2558152774915589E-08   -0.5804990771927920E-09    0.8950648382188842E-12   -0.6843414723789465E-12   -0.4814615915151033E-10
 -0.6366  -0.3043    0.7398451937953804E-02   -0.1788692706365487E-06   -0.1789809808353468E-06    0.4988899146155368E+00    0.6593351497706443E-03    0.1526555850519547E-09   -0.5774536722272586E-09    0.4875836063025774E-12   -0.4801350289573847E-12   -0.1181453936419108E-10
 -0.6370  -0.3053    0.6897157235954908E-02    0.0000000000000000E+00    0.0000000000000000E+00    0.5000000000000000E+00   -0.7568152393600973E-04    0.0000000000000000E+00    0.0000000000000000E+00    0.0000000000000000E+00    0.0000000000000000E+00    0.0000000000000000E+00
 -0.3009   0.6366    0.2616708216495323E-01    0.0000000000000000E+00    0.0000000000000000E+00   -0.5000000000000000E+00   -0.4346127460699028E-02    0.0000000000000000E+00    0.0000000000000000E+00    0.0000000000000000E+00    0.0000000000000000E+00    0.0000000000000000E+00
 -0.3013   0.6355    0.2666210783432606E-01    0.1617375001546503E-05   -0.5365089513352516E-05   -0.4953535290502916E+00   -0.5990933641337647E-02   -0.2718353384378929E-08   -0.1499136357586972E-08    0.1783782269029061E-12    0.3159651359996296E-12    0.4643807365554975E-11
 -0.3023   0.6325    0.2811959962227463E-01    0.2397704821227680E-04   -0.2398123233756060E-04   -0.4814364577946181E+00   -0.1109134544345870E-01   -0.4979879858759889E-07   -0.1498940617461475E-08    0.5404064782471574E-12    0.6691010592807523E-12    0.1927337065985024E-10
 -0.3041   0.6275    0.3046816385556849E-01    0.1101127176127589E-03   -0.4711797321622705E-04   -0.4583308654979781E+00   -0.2557835040486305E-01   -0.2451284288166774E-06   -0.1499277594435577E-08    0.1098554407163999E-11    0.5198237673642581E-12    0.4238483435753393E-10
 -0.3066   0.6205    0.3360802978875419E-01    0.2922210144941726E-03   -0.6128929774310110E-04   -0.4262261590003966E+00   -0.5889716602365924E-01   -0.6579520894432468E-06   -0.1500717987379385E-08    0.2935663864778171E-11    0.6246739236992482E-13    0.7460129215763889E-10
 -0.3097   0.6115    0.3739484814583585E-01    0.5605341683998408E-03   -0.6289298534903794E-04   -0.3855035847980482E+00   -0.1122765642396476E+00   -0.1257540260415524E-05   -0.1502927695490319E-08    0.7345409003267633E-11   -0.4328586100665888E-12    0.1123262559354909E-09
 -0.3136   0.6007    0.4161118262174308E-01    0.8699506800078347E-03   -0.5411146339526794E-04   -0.3368548370191630E+00   -0.1779536464936550E+00   -0.1938352166880411E-05   -0.1504736429208675E-08    0.1490500084466717E-10   -0.7663800150048417E-12    0.1504917822303664E-09
 -0.3181   0.5879    0.4595992371081765E-01    0.1162479156387405E-02   -0.3930534480643516E-04   -0.2814144663722523E+00   -0.2440385394517317E+00   -0.2570739178171515E-05   -0.1504729785217762E-08    0.2520003650197111E-10   -0.8942638296538519E-12    0.1784067130139455E-09
 -0.3232   0.5734    0.5007806514339141E-01    0.1390863046851110E-02   -0.2358942301130227E-04   -0.2208647100974426E+00   -0.3003169250710776E+00   -0.3050799229938635E-05   -0.1501545150370265E-08    0.3705434917233852E-10   -0.7823498793246841E-12    0.1786395129044216E-09