 title="result"
 variables="x","y","P","u","v","t","omega","psi","RES1","RES2","RES3","RES4"
zone,j= 49,i= 49,f=point
 -0.4486   0.5466    0.2409186066083913E-01    0.0000000000000000E+00    0.0000000000000000E+00   -0.5000000000000000E+00    0.0000000000000000E+00    0.0000000000000000E+00    0.0000000000000000E+00    0.0000000000000000E+00    0.0000000000000000E+00    0.0000000000000000E+00
 -0.4487   0.5455    0.2462026067658614E-01    0.0000000000000000E+00    0.0000000000000000E+00   -0.4960518473754551E+00   -0.2443315970612548E-03    0.0000000000000000E+00    0.0000000000000000E+00    0.0000000000000000E+00    0.0000000000000000E+00    0.0000000000000000E+00
 -0.4490   0.5423    0.2619142563235480E-01    0.0000000000000000E+00    0.0000000000000000E+00   -0.4842259410565114E+00   -0.4334723913876234E-02    0.0000000000000000E+00    0.0000000000000000E+00    0.0000000000000000E+00    0.0000000000000000E+00    0.0000000000000000E+00
 -0.4495   0.5370    0.2875935484551317E-01    0.0000000000000000E+00    0.0000000000000000E+00   -0.4645875652134674E+00   -0.7069541542651958E-02    0.0000000000000000E+00    0.0000000000000000E+00    0.0000000000000000E+00    0.0000000000000000E+00    0.0000000000000000E+00
 -0.4503   0.5296    0.3219630812824196E-01    0.0000000000000000E+00    0.0000000000000000E+00   -0.4372758160016322E+00    0.7667134511571519E-02    0.0000000000000000E+00    0.0000000000000000E+00    0.0000000000000000E+00    0.0000000000000000E+00    0.0000000000000000E+00
 -0.4512   0.5202    0.3626617551157798E-01    0.0000000000000000E+00    0.0000000000000000E+00   -0.4025414072624557E+00    0.5198885112650500E-01    0.0000000000000000E+00    0.0000000000000000E+00    0.0000000000000000E+00    0.0000000000000000E+00    0.0000000000000000E+00
 -0.4523   0.5087    0.4065687599995521E-01    0.0000000000000000E+00    0.0000000000000000E+00   -0.3607870531167284E+00    0.1263331003073128E+00    0.0000000000000000E+00    0.0000000000000000E+00    0.0000000000000000E+00    0.0000000000000000E+00    0.0000000000000000E+00
 -0.4536   0.4953    0.4501431484138834E-01    0.0000000000000000E+00    0.0000000000000000E+00   -0.3126112789409765E+00    0.2188024470564019E+00    0.0000000000000000E+00    0.0000000000000000E+00    0.0000000000000000E+00    0.0000000000000000E+00    0.0000000000000000E+00
 -0.4551   0.4799    0.4897758892300140E-01    0.0000000000000000E+00    0.0000000000000000E+00   -0.2588694717698264E+00    0.3076726343677312E+00    0.0000000000000000E+00    0.0000000000000000E+00    0.0000000000000000E+00    0.0000000000000000E+00    0.0000000000000000E+00
 -0.4568   0.4627    0.5220983466773841E-01    0.0000000000000000E+00    0.0000000000000000E+00   -0.2007675793992477E+00    0.3659704912736921E+00    0.0000000000000000E+00    0.0000000000000000E+00    0.0000000000000000E+00    0.0000000000000000E+00    0.0000000000000000E+00
 -0.4587   0.4438    0.5442551901148187E-01    0.0000000000000000E+00    0.0000000000000000E+00   -0.1399824990457257E+00    0.3669480661392178E+00    0.0000000000000000E+00    0.0000000000000000E+00    0.0000000000000000E+00    0.0000000000000000E+00    0.0000000000000000E+00
 -0.4607   0.4231    0.5541065297606964E-01    0.0000000000000000E+00    0.0000000000000000E+00   -0.7875818003537734E-01    0.2894685581284042E+00    0.0000000000000000E+00    0.0000000000000000E+00    0.0000000000000000E+00    0.0000000000000000E+00    0.0000000000000000E+00
 -0.4629   0.4009    0.5503654095478107E-01    0.0000000000000000E+00    0.0000000000000000E+00   -0.1987355999038218E-01    0.1213874747982031E+00    0.0000000000000000E+00    0.0000000000000000E+00    0.0000000000000000E+00    0.0000000000000000E+00    0.0000000000000000E+00
 -0.4653   0.3771    0.5326815326068495E-01    0.0000000000000000E+00    0.0000000000000000E+00    0.3364016817031049E-01   -0.1406504520369480E+00    0.0000000000000000E+00    0.0000000000000000E+00    0.0000000000000000E+00    0.0000000000000000E+00    0.0000000000000000E+00
 -0.4678   0.3519    0.5016960152186122E-01    0.0000000000000000E+00    0.0000000000000000E+00    0.7907691901351313E-01   -0.4950355595511836E+00    0.0000000000000000E+00    0.0000000000000000E+00    0.0000000000000000E+00    0.0000000000000000E+00    0.0000000000000000E+00
 -0.4704   0.3255    0.4590338687307088E-01    0.0000000000000000E+00    0.0000000000000000E+00    0.1147753493840676E+00   -0.9401669839101057E+00    0.0000000000000000E+00    0.0000000000000000E+00    0.0000000000000000E+00    0.0000000000000000E+00    0.0000000000000000E+00
 -0.4731   0.2978    0.4071813177288779E-01    0.0000000000000000E+00    0.0000000000000000E+00    0.1406298477781910E+00   -0.1477372262909349E+01    0.0000000000000000E+00    0.0000000000000000E+00    0.0000000000000000E+00    0.0000000000000000E+00    0.0000000000000000E+00
 -0.4759   0.2691    0.3492444302197926E-01    0.0000000000000000E+00    0.0000000000000000E+00    0.1580590298854382E+00   -0.2110080288065512E+01    0.0000000000000000E+00    0.0000000000000000E+00    0.0000000000000000E+00    0.0000000000000000E+00    0.0000000000000000E+00
 -0.4788   0.2394    0.2886907466098762E-01    0.0000000000000000E+00    0.0000000000000000E+00    0.1694088238895015E+00   -0.2839935334734623E+01    0.0000000000000000E+00    0.0000000000000000E+00    0.0000000000000000E+00    0.0000000000000000E+00    0.0000000000000000E+00
 -0.4818   0.2090    0.2291731301670482E-01    0.0000000000000000E+00    0.0000000000000000E+00    0.1771347388444574E+00   -0.3661778299047632E+01    0.0000000000000000E+00    0.0000000000000000E+00    0.0000000000000000E+00    0.0000000000000000E+00    0.0000000000000000E+00
 -0.4849   0.1778    0.1744326990885666E-01    0.0000000000000000E+00    0.0000000000000000E+00    0.1831966961278561E+00   -0.4559697002431975E+01    0.0000000000000000E+00    0.0000000000000000E+00    0.0000000000000000E+00    0.0000000000000000E+00    0.0000000000000000E+00
 -0.4880   0.1461    0.1281817149172174E-01    0.0000000000000000E+00    0.0000000000000000E+00    0.1888633497268055E+00   -0.5505707560527762E+01    0.0000000000000000E+00    0.0000000000000000E+00    0.0000000000000000E+00    0.0000000000000000E+00    0.0000000000000000E+00
 -0.4912   0.1140    0.9388654177684686E-02    0.0000000000000000E+00    0.0000000000000000E+00    0.1948284679482265E+00   -0.6461368523035375E+01    0.0000000000000000E+00    0.0000000000000000E+00    0.0000000000000000E+00    0.0000000000000000E+00    0.0000000000000000E+00
 -0.4944   0.0816    0.7444798152260247E-02    0.0000000000000000E+00    0.0000000000000000E+00    0.2014299731627331E+00   -0.7381294024658279E+01    0.0000000000000000E+00    0.0000000000000000E+00    0.0000000000000000E+00    0.0000000000000000E+00    0.0000000000000000E+00
 -0.4976   0.0490    0.7184293173317580E-02    0.0000000000000000E+00    0.0000000000000000E+00    0.2088285004614088E+00   -0.8217101735615532E+01    0.0000000000000000E+00    0.0000000000000000E+00    0.0000000000000000E+00    0.0000000000000000E+00    0.0000000000000000E+00
 -0.5008   0.0165    0.8679786612477786E-02    0.0000000000000000E+00    0.0000000000000000E+00    0.2171084390197617E+00   -0.8920749224286405E+01    0.0000000000000000E+00    0.0000000000000000E+00    0.0000000000000000E+00    0.0000000000000000E+00    0.0000000000000000E+00
 -0.5040  -0.0159    0.1185437373211190E-01    0.0000000000000000E+00    0.0000000000000000E+00    0.2263214474081220E+00   -0.9447126105713160E+01    0.0000000000000000E+00    0.0000000000000000E+00    0.0000000000000000E+00    0.0000000000000000E+00    0.0000000000000000E+00
 -0.5072  -0.0481    0.1646802598992294E-01    0.0000000000000000E+00    0.0000000000000000E+00    0.2365003545567302E+00   -0.9756483397175186E+01    0.0000000000000000E+00    0.0000000000000000E+00    0.0000000000000000E+00    0.0000000000000000E+00    0.0000000000000000E+00
 -0.5103  -0.0798    0.2211839823662849E-01    0.0000000000000000E+00    0.0000000000000000E+00    0.2476610316922566E+00   -0.9817548713404365E+01    0.0000000000000000E+00    0.0000000000000000E+00    0.0000000000000000E+00    0.0000000000000000E+00    0.0000000000000000E+00
 -0.5133  -0.1109    0.2826104514863008E-01    0.0000000000000000E+00    0.0000000000000000E+00    0.2598002858286639E+00   -0.9611767370268852E+01    0.0000000000000000E+00    0.0000000000000000E+00    0.0000000000000000E+00    0.0000000000000000E+00    0.0000000000000000E+00
 -0.5163  -0.1414    0.3425456979219441E-01    0.0000000000000000E+00    0.0000000000000000E+00    0.2728930136957463E+00   -0.9138266510041655E+01    0.0000000000000000E+00    0.0000000000000000E+00    0.0000000000000000E+00    0.0000000000000000E+00    0.0000000000000000E+00
 -0.5193  -0.1711    0.3943206009168058E-01    0.0000000000000000E+00    0.0000000000000000E+00    0.2868900192811020E+00   -0.8418095866929416E+01    0.0000000000000000E+00    0.0000000000000000E+00    0.0000000000000000E+00    0.0000000000000000E+00    0.0000000000000000E+00
 -0.5221  -0.1998    0.4319135763394107E-01    0.0000000000000000E+00    0.0000000000000000E+00    0.3017171358374516E+00   -0.7495682527719434E+01    0.0000000000000000E+00    0.0000000000000000E+00    0.0000000000000000E+00    0.0000000000000000E+00    0.0000000000000000E+00
 -0.5248  -0.2274    0.4508577909693277E-01    0.0000000000000000E+00    0.0000000000000000E+00    0.3172756597391684E+00   -0.6435689437589486E+01    0.0000000000000000E+00    0.0000000000000000E+00    0.0000000000000000E+00    0.0000000000000000E+00    0.0000000000000000E+00
 -0.5274  -0.2539    0.4489079355045821E-01    0.0000000000000000E+00    0.0000000000000000E+00    0.3334433655372769E+00   -0.5314892954970020E+01    0.0000000000000000E+00    0.0000000000000000E+00    0.0000000000000000E+00    0.0000000000000000E+00    0.0000000000000000E+00
 -0.5299  -0.2791    0.4262620856561233E-01    0.0000000000000000E+00    0.0000000000000000E+00    0.3500747323925469E+00   -0.4210719291936265E+01    0.0000000000000000E+00    0.0000000000000000E+00    0.0000000000000000E+00    0.0000000000000000E+00    0.0000000000000000E+00
 -0.5322  -0.3028    0.3852822217182832E-01    0.0000000000000000E+00    0.0000000000000000E+00    0.3669989428361012E+00   -0.3189700999598490E+01    0.0000000000000000E+00    0.0000000000000000E+00    0.0000000000000000E+00    0.0000000000000000E+00    0.0000000000000000E+00
 -0.5344  -0.3251    0.3298373606745716E-01    0.0000000000000000E+00    0.0000000000000000E+00    0.3840151829859894E+00   -0.2299241311148061E+01    0.0000000000000000E+00    0.0000000000000000E+00    0.0000000000000000E+00    0.0000000000000000E+00    0.0000000000000000E+00
 -0.5365  -0.3458    0.2645090447029597E-01    0.0000000000000000E+00    0.0000000000000000E+00    0.4008868197364351E+00   -0.1564645407488832E+01    0.0000000000000000E+00    0.0000000000000000E+00    0.0000000000000000E+00    0.0000000000000000E+00    0.0000000000000000E+00
 -0.5383  -0.3647    0.1938955638145325E-01    0.0000000000000000E+00    0.0000000000000000E+00    0.4173383560671681E+00   -0.9912121060337092E+00    0.0000000000000000E+00    0.0000000000000000E+00    0.0000000000000000E+00    0.0000000000000000E+00    0.0000000000000000E+00
 -0.5400  -0.3819    0.1221534320729429E-01    0.0000000000000000E+00    0.0000000000000000E+00    0.4330601060976673E+00   -0.5694841464261722E+00    0.0000000000000000E+00    0.0000000000000000E+00    0.0000000000000000E+00    0.0000000000000000E+00    0.0000000000000000E+00
 -0.5415  -0.3973    0.5279462400911312E-02    0.0000000000000000E+00    0.0000000000000000E+00    0.4477238341606891E+00   -0.2811916718484969E+00    0.0000000000000000E+00    0.0000000000000000E+00    0.0000000000000000E+00    0.0000000000000000E+00    0.0000000000000000E+00
 -0.5429  -0.4107   -0.1133192229025596E-02    0.0000000000000000E+00    0.0000000000000000E+00    0.4610081537487828E+00   -0.1038301859929305E+00    0.0000000000000000E+00    0.0000000000000000E+00    0.0000000000000000E+00    0.0000000000000000E+00    0.0000000000000000E+00
 -0.5440  -0.4222   -0.6797744556260102E-02    0.0000000000000000E+00    0.0000000000000000E+00    0.4726273048023953E+00   -0.1297571009949238E-01    0.0000000000000000E+00    0.0000000000000000E+00    0.0000000000000000E+00    0.0000000000000000E+00    0.0000000000000000E+00
 -0.5449  -0.4316   -0.1154509342321545E-01    0.0000000000000000E+00    0.0000000000000000E+00    0.4823541149682695E+00    0.1741034856842665E-01    0.0000000000000000E+00    0.0000000000000000E+00    0.0000000000000000E+00    0.0000000000000000E+00    0.0000000000000000E+00
 -0.5457  -0.4390   -0.1526403911416083E-01    0.0000000000000000E+00    0.0000000000000000E+00    0.4900296178382558E+00    0.1450876620661033E-01    0.0000000000000000E+00    0.0000000000000000E+00    0.0000000000000000E+00    0.0000000000000000E+00    0.0000000000000000E+00
 -0.5462  -0.4443   -0.1790771186929883E-01    0.0000000000000000E+00    0.0000000000000000E+00    0.4955574784322181E+00    0.3800681651131555E-02    0.0000000000000000E+00    0.0000000000000000E+00    0.0000000000000000E+00    0.0000000000000000E+00    0.0000000000000000E+00
 -0.5465  -0.4475   -0.1948912693981216E-01    0.0000000000000000E+00    0.0000000000000000E+00    0.4988879865069039E+00   -0.1338229230863292E-03    0.0000000000000000E+00    0.0000000000000000E+00    0.0000000000000000E+00    0.0000000000000000E+00    0.0000000000000000E+00
 -0.5466  -0.4486   -0.2001914077780675E-01    0.0000000000000000E+00    0.0000000000000000E+00    0.5000000000000000E+00    0.0000000000000000E+00    0.0000000000000000E+00    0.0000000000000000E+00    0.0000000000000000E+00    0.0000000000000000E+00    0.0000000000000000E+00
 -0.4475   0.5465    0.2414651188723969E-01    0.0000000000000000E+00    0.0000000000000000E+00   -0.5000000000000000E+00   -0.2444552510049048E-03    0.0000000000000000E+00    0.0000000000000000E+00    0.0000000000000000E+00    0.0000000000000000E+00    0.0000000000000000E+00
 -0.4476   0.5454    0.2467470577605427E-01    0.2885335565937041E-06   -0.2886174017840575E-06   -0.4960517648184045E+00   -0.5353228734942634E-03   -0.2017644359073034E-09    0.7606781124045933E-09    0.2839209580331528E-12    0.3234834275445131E-12   -0.8087820127164469E-11
 -0.4479   0.5422    0.2624453132553147E-01    0.3561297859591068E-05   -0.6746969135947140E-06   -0.4842256121944537E+00   -0.2344366404815806E-02   -0.2053936029621713E-08    0.7628313469180276E-09    0.6099617338994889E-12    0.4629640854708628E-12   -0.3167454536504022E-10
 -0.4485   0.5369    0.2880628182079821E-01    0.5002474818131769E-05    0.3495175995740207E-06   -0.4645868383146732E+00   -0.2196229414256610E-02   -0.3152603343772627E-08    0.7652760394783950E-09    0.6433673038763743E-12    0.4148066438947051E-12   -0.7159663660549764E-10
 -0.4492   0.5295    0.3223282653592406E-01   -0.1095997716469048E-04    0.1887503860689449E-05   -0.4372745726670073E+00    0.1283326615781097E-01    0.5410480512403507E-08    0.7680110228336368E-09    0.4504122769199981E-12    0.4530872205199543E-12   -0.1275011710794027E-09
 -0.4501   0.5201    0.3629260757869922E-01   -0.5705177162657507E-04    0.3221961343544212E-05   -0.4025395658075348E+00    0.5461239566587876E-01    0.3028154074928422E-07    0.7713332941111650E-09   -0.1009105993210468E-12    0.4655685559296074E-12   -0.1993830083674153E-09
 -0.4512   0.5086    0.4067570600597352E-01   -0.1341428566171046E-03    0.3864616649382771E-05   -0.3607845393548237E+00    0.1242510005760051E+00    0.7201537564122040E-07    0.7749685389940586E-09   -0.1073996794276333E-11    0.5084821452783217E-12   -0.2881215682704052E-09
 -0.4526   0.4952    0.4502904349805996E-01   -0.2300234356591950E-03    0.3679432421612623E-05   -0.3126079805211296E+00    0.2108966723945633E+00    0.1238661435349565E-06    0.7787110192780666E-09   -0.2448149322153981E-11    0.4746827930723896E-12   -0.3928063256608549E-09
 -0.4541   0.4798    0.4899162335223741E-01   -0.3219750928809338E-03    0.2671741061564353E-05   -0.2588652056374380E+00    0.2937923885733081E+00    0.1736691312862726E-06    0.7824165464825894E-09   -0.4132798270273241E-11    0.4906717393504678E-12   -0.5113994228089780E-09
 -0.4558   0.4626    0.5222597802050945E-01   -0.3815737515908448E-03    0.1017177319186613E-05   -0.2007621015227116E+00    0.3468370167900544E+00    0.2060560285705512E-06    0.7861817204191102E-09   -0.6030509425158925E-11    0.4944690490393810E-12   -0.6373474734089335E-09
 -0.4576   0.4437    0.5444549754680495E-01   -0.3805004166709121E-03   -0.1050606864275203E-05   -0.1399755760937876E+00    0.3438502390901461E+00    0.2058715979057250E-06    0.7901689164091508E-09   -0.8041602106434453E-11    0.4959895341660747E-12   -0.7579002564428450E-09
 -0.4597   0.4230    0.5543508145002301E-01   -0.2962476630150902E-03   -0.3242528729021962E-05   -0.7874972516939507E-01    0.2639353481188006E+00    0.1609973543096805E-06    0.7944544145807586E-09   -0.1009152483799625E-10    0.4544593867894520E-12   -0.8489287744994911E-09
 -0.4619   0.4008    0.5506513134512672E-01   -0.1157437420507360E-03   -0.5330957478677216E-05   -0.1986379862291270E-01    0.9480071814240497E-01    0.6448969011305963E-07    0.7984834286822728E-09   -0.1211898636999109E-10    0.4325949320982403E-12   -0.8755184632835977E-09
 -0.4642   0.3770    0.5330033812704438E-01    0.1647922683904173E-03   -0.7184487686572842E-05    0.3365059154133242E-01   -0.1672536561855920E+00   -0.8567651986361843E-07    0.8007090337991407E-09   -0.1406887106814025E-10    0.3697875339270240E-12   -0.7949708669130473E-09
 -0.4667   0.3518    0.5020511780491389E-01    0.5438089438368312E-03   -0.8817858900330829E-05    0.7908700977499285E-01   -0.5209493597460975E+00   -0.2886111227590005E-06    0.7981462886441637E-09   -0.1586952791399199E-10    0.3334416076583580E-12   -0.5699227062505585E-09
 -0.4693   0.3254    0.4594262829020777E-01    0.1019633051058135E-02   -0.1032114285861607E-04    0.1147840517622514E+00   -0.9647549455378200E+00   -0.5434362327928337E-06    0.7867038513686975E-09   -0.1743763466954817E-10    0.2545949562282601E-12   -0.1866242091419501E-09
 -0.4720   0.2977    0.4076197133415380E-01    0.1593546306172812E-02   -0.1179690144148441E-04    0.1406364293413273E+00   -0.1499742696069044E+01   -0.8508413888909201E-06    0.7619968822591972E-09   -0.1866332782762825E-10    0.1816810590860030E-12    0.3319000491108781E-09
 -0.4749   0.2690    0.3497377265029797E-01    0.2268922313517082E-02   -0.1327322291918165E-04    0.1580633230728851E+00   -0.2128780756692845E+01   -0.1212703238921903E-05    0.7205610101645998E-09   -0.1942590532877375E-10    0.7051303985150525E-13    0.9273503596973764E-09
 -0.4778   0.2393    0.2892421686037265E-01    0.3047124765003129E-02   -0.1469097244004755E-04    0.1694111752010999E+00   -0.2852775148795295E+01   -0.1629806983678566E-05    0.6607411354164761E-09   -0.1957608380953602E-10   -0.1834643548193071E-13    0.1525393904938666E-08
 -0.4808   0.2088    0.2297763008448219E-01    0.3922223624315407E-02   -0.1590342936049236E-04    0.1771357403956117E+00   -0.3665802709560526E+01   -0.2099063833521427E-05    0.5831854027471550E-09   -0.1888780624959008E-10   -0.1424138584837920E-12    0.2061538884913505E-08
 -0.4838   0.1777    0.1750700098368385E-01    0.4876870326428226E-02   -0.1672977404366466E-04    0.1831969073930545E+00   -0.4551366725800174E+01   -0.2611233002303749E-05    0.4904767356150863E-09   -0.1709545699446480E-10   -0.2718936187307008E-12    0.2496379075895075E-08
 -0.4870   0.1460    0.1288258168952871E-01    0.5880980667346926E-02   -0.1699554664212195E-04    0.1888631556186231E+00   -0.5481245998702818E+01   -0.3150242615320687E-05    0.3868907486048734E-09   -0.1391264881078769E-10   -0.3594763375858179E-12    0.2818680257515166E-08
 -0.4901   0.1139    0.9450312509684519E-02    0.6893515105080893E-02   -0.1657792885833548E-04    0.1948280757259327E+00   -0.6417212797294534E+01   -0.3694098547888190E-05    0.2779828554844155E-09   -0.9132097855690802E-11   -0.4357209038019505E-12    0.3036323656478018E-08
 -0.4933   0.0814    0.7499921820780250E-02    0.7866246518212877E-02   -0.1540867935046169E-04    0.2014294722045705E+00   -0.7314554379753492E+01   -0.4216927134526405E-05    0.1701281095167761E-09   -0.2788713704404699E-11   -0.5095368571517156E-12    0.3164988424120274E-08
 -0.4965   0.0489    0.7228985819845375E-02    0.8747957709757318E-02   -0.1347060417335330E-04    0.2088279208749278E+00   -0.8125968541985863E+01   -0.4691207009568100E-05    0.6998997909013482E-10    0.4864691982575664E-11   -0.5164549343739111E-12    0.3222463568555711E-08
 -0.4997   0.0164    0.8710216152103588E-02    0.9487972776340758E-02   -0.1077465808645342E-04    0.2171077871924893E+00   -0.8804824884245642E+01   -0.5089679802356612E-05   -0.1621923428896110E-10    0.1333394505920182E-10   -0.4771044670448532E-12    0.3223813338677772E-08
 -0.5029  -0.0160    0.1186686552766710E-01    0.1003889003755167E-01   -0.7355689311593391E-05    0.2263207224213662E+00   -0.9307676138277650E+01   -0.5386813983851340E-05   -0.8355537095550147E-10    0.2195310599972800E-10   -0.3732500419850737E-12    0.3180490710207040E-08
 -0.5061  -0.0482    0.1645922203416944E-01    0.1035913860685445E-01   -0.3274984000899740E-05    0.2364995545663035E+00   -0.9596609626321552E+01   -0.5560181069451804E-05   -0.1289322763137202E-09    0.3002220694270363E-10   -0.2629719358937521E-12    0.3101505703304031E-08
 -0.5092  -0.0799    0.2208549221142359E-01    0.1041624578168180E-01    0.1353966866738085E-05    0.2476601561928771E+00   -0.9642229840436194E+01   -0.5592223631811521E-05   -0.1516400104442650E-09    0.3680561411201211E-10   -0.9126293470940183E-13    0.2993771399187328E-08
 -0.5123  -0.1110    0.2820219068982326E-01    0.1019126850269314E-01    0.6339973018812585E-05    0.2597993362940668E+00   -0.9427705088457358E+01   -0.5472632650945093E-05   -0.1536918040750956E-09    0.4163203115581382E-10    0.1189152942782101E-12    0.2862475766834960E-08
 -0.5153  -0.1415    0.3416934353088128E-01    0.9683950248553818E-02    0.1139389853650789E-04    0.2728919933261791E+00   -0.8953426302682045E+01   -0.5201157493658722E-05   -0.1394895240980354E-09    0.4403083453397016E-10    0.3296529715868246E-12    0.2711511693995194E-08
 -0.5182  -0.1712    0.3932191398574001E-01    0.8917085100830276E-02    0.1613912708085662E-04    0.2868889320144854E+00   -0.8240932852489022E+01   -0.4789943486764773E-05   -0.1153978718138049E-09    0.4373074125041398E-10    0.5432321259490891E-12    0.2544207773277907E-08
 -0.5210  -0.1999    0.4305980168136206E-01    0.7937939783640487E-02    0.2015822964084365E-04    0.3017159848184001E+00   -0.7334097491300176E+01   -0.4264355685541042E-05   -0.8867048068017525E-10    0.4080774607118087E-10    0.7606970608975416E-12    0.2363560534790476E-08
 -0.5238  -0.2275    0.4493820906486277E-01    0.6814870625509034E-02    0.2307228783260877E-04    0.3172744457563453E+00   -0.6295967311877131E+01   -0.3661123108225632E-05   -0.6601534596750724E-10    0.3564976092107486E-10    0.8954642582992278E-12    0.2171300157033373E-08
 -0.5264  -0.2540    0.4473384540060719E-01    0.5628763539980902E-02    0.2463029411975602E-04    0.3334420863244455E+00   -0.5200870395270003E+01   -0.3023792254130799E-05   -0.5241315714776817E-10    0.2898636886072836E-10    0.1060401766395103E-11    0.1970952241692192E-08
 -0.5288  -0.2792    0.4246685353319473E-01    0.4461028878431176E-02    0.2476810576222047E-04    0.3500733838644729E+00   -0.4123479540593150E+01   -0.2396181040725846E-05   -0.5006837999754765E-10    0.2168920598677460E-10    0.1119118686609966E-11    0.1764760124492448E-08
 -0.5312  -0.3029    0.3837277917172680E-01    0.3381550187361439E-02    0.2362003166921230E-04    0.3669975230247398E+00   -0.3127808329974576E+01   -0.1815961150250554E-05   -0.5850554068986824E-10    0.1463271170898395E-10    0.1172437147367589E-11    0.1555828701982342E-08
 -0.5334  -0.3252    0.3283717601193789E-01    0.2440103265191938E-02    0.2146424953661758E-04    0.3840136984634407E+00   -0.2259456213868562E+01   -0.1309917481452067E-05   -0.7511245098124064E-10    0.8506792492646298E-11    0.1180194830752157E-11    0.1347165160675567E-08
 -0.5354  -0.3459    0.2631651651030499E-01    0.1663272417628468E-02    0.1864606473837877E-04    0.4008852928226415E+00   -0.1542768376013291E+01   -0.8924079707936849E-06   -0.9624306213096290E-10    0.3733048592469146E-11    0.1167385632605544E-11    0.1143002803516424E-08
 -0.5373  -0.3648    0.1926909096755699E-01    0.1056638302665106E-02    0.1548301401508930E-04    0.4173368297390153E+00   -0.9828899555844693E+00   -0.5663899611985777E-06   -0.1182789317877297E-09    0.4220443439173494E-12    0.1142724803671058E-11    0.9466510977884646E-09
 -0.5390  -0.3820    0.1210937259371065E-01    0.6102580122746275E-03    0.1222070733700770E-04    0.4330586432007609E+00   -0.5706816113750813E+00   -0.3265658997446826E-06   -0.1384882590549363E-09   -0.1544331286115752E-11    0.1105691926905905E-11    0.7619007889869689E-09
 -0.5405  -0.3974    0.5187876582387348E-02    0.3048556760070934E-03    0.9001454245734486E-05    0.4477225089458402E+00   -0.2884312666107983E+00   -0.1624974528176078E-06   -0.1551593090121095E-09   -0.2443444752087132E-11    0.1082738065871780E-11    0.5913633211590552E-09
 -0.5418  -0.4108   -0.1210936179017033E-02    0.1165951394055212E-03    0.5921402681282489E-05    0.4610070366944943E+00   -0.1140755426251566E+00   -0.6146891786451000E-07   -0.1677714998177260E-09   -0.2606349164269162E-11    0.1080444761436539E-11    0.4397321473961768E-09
 -0.5429  -0.4223   -0.6862676302791213E-02    0.1948443583781598E-04    0.3073261706681728E-05    0.4726264449682633E+00   -0.2352927576434995E-01   -0.9426068269014674E-08   -0.1765412937365651E-09   -0.2369077156672006E-11    0.1041130723300476E-11    0.3079149686960325E-09
 -0.5439  -0.4317   -0.1159932792863324E-01   -0.1420246484035920E-04    0.7052298924807488E-06    0.4823535262111880E+00    0.9053120080645436E-02    0.8350138035052686E-08   -0.1824989753502343E-09   -0.1999303500532790E-11    0.1043888499946410E-11    0.1978267493395192E-09
 -0.5446  -0.4391   -0.1531177163722685E-01   -0.1327752646670678E-04   -0.8217274967855909E-06    0.4900292747317628E+00    0.1019268351749229E-01    0.7552627325900850E-08   -0.1867761416449870E-09   -0.1683351374959230E-11    0.1010528900141638E-11    0.1118084422789545E-09
 -0.5451  -0.4444   -0.1795574784897034E-01   -0.3903274785128048E-05   -0.1049633195488553E-05    0.4955573240420769E+00    0.3596278918982933E-02    0.2068375024043387E-08   -0.1913859613324187E-09   -0.1431384524797075E-11    0.1077259809134645E-11    0.4995156480287755E-10
 -0.5454  -0.4476   -0.1953945262729674E-01   -0.1031130919915269E-06   -0.1033955037168456E-06    0.4988879478210274E+00    0.5162320395343495E-03    0.8991479157589749E-10   -0.1963457961755982E-09   -0.7449394833630718E-12    0.7394406267846598E-12    0.1264743989875736E-10
 -0.5455  -0.4487   -0.2006952555597713E-01    0.0000000000000000E+00    0.0000000000000000E+00    0.5000000000000000E+00   -0.1332441175218585E-03    0.0000000000000000E+00    0.0000000000000000E+00    0.0000000000000000E+00    0.0000000000000000E+00    0.0000000000000000E+00
 -0.4443   0.5462    0.2429683862101975E-01    0.0000000000000000E+00    0.0000000000000000E+00   -0.5000000000000000E+00   -0.4334939135998827E-02    0.0000000000000000E+00    0.0000000000000000E+00    0.0000000000000000E+00    0.0000000000000000E+00    0.0000000000000000E+00
 -0.4444   0.5451    0.2482513020969097E-01    0.6745389491291208E-06   -0.3561327968534710E-05   -0.4960505316333065E+00   -0.2344215394896542E-02   -0.2053984949593885E-08    0.7626652820565127E-09    0.4623028305658639E-12    0.5500156536816792E-12   -0.8174629918290821E-11
 -0.4447   0.5419    0.2639309318926503E-01    0.4681132316535242E-05   -0.4681485095978919E-05   -0.4842207017502659E+00    0.2425994887180791E-02   -0.1831154664976011E-07    0.7635154945350581E-09    0.1373420040889917E-11    0.1342224291780991E-11   -0.3185656469520404E-10
 -0.4453   0.5366    0.2894229975350409E-01   -0.3223110853161891E-05    0.7913086395583493E-05   -0.4645759588528495E+00    0.9471328571959502E-02   -0.1365410265160963E-07    0.7653113550873392E-09    0.1840357727322939E-11    0.1749468625522610E-11   -0.7145081401538356E-10
 -0.4460   0.5292    0.3234441322151536E-01   -0.6984558204111518E-04    0.2920981579519264E-04   -0.4372558193715931E+00    0.2558000665537799E-01    0.1261619975134215E-06    0.7677942552575256E-09    0.1259266128872394E-11    0.2058174811137015E-11   -0.1275547740348104E-09
 -0.4469   0.5198    0.3637759707432947E-01   -0.2402609516253162E-03    0.4836716822983555E-04   -0.4025114766936890E+00    0.6048674493483929E-01    0.5031441707523615E-06    0.7708882976409370E-09   -0.7170475151141442E-12    0.2319144876139489E-11   -0.1995270424576256E-09
 -0.4481   0.5083    0.4073930972594367E-01   -0.5209226342238533E-03    0.5798281282798714E-04   -0.3607457604007641E+00    0.1169340279290942E+00    0.1128937363865694E-05    0.7743755602029889E-09   -0.4312185157562265E-11    0.2503766291517273E-11   -0.2881510724472847E-09
 -0.4494   0.4949    0.4508013730182891E-01   -0.8688387029538619E-03    0.5501596428532340E-04   -0.3125567029370946E+00    0.1868211316204855E+00    0.1906008898291505E-05    0.7780477720431556E-09   -0.9442717441299209E-11    0.2623118736111429E-11   -0.3929446212858068E-09
 -0.4509   0.4795    0.4903956215669682E-01   -0.1199506160500666E-02    0.3955087986987118E-04   -0.2587987744187694E+00    0.2523470893921930E+00    0.2647885662208817E-05    0.7817591712866445E-09   -0.1581373226811067E-10    0.2656959721680785E-11   -0.5113683712587580E-09