 title="result"
 variables="x","y","P","u","v","t","omega","psi","RES1","RES2","RES3","RES4"
zone,j= 49,i= 49,f=point
 -0.3210   0.6300    0.2527656020836283E-01    0.0000000000000000E+00    0.0000000000000000E+00   -0.5000000000000000E+00    0.0000000000000000E+00    0.0000000000000000E+00    0.0000000000000000E+00    0.0000000000000000E+00    0.0000000000000000E+00    0.0000000000000000E+00
 -0.3214   0.6290    0.2578237972062968E-01    0.0000000000000000E+00    0.0000000000000000E+00   -0.4954166752087072E+00    0.1298444043911976E-03    0.0000000000000000E+00    0.0000000000000000E+00    0.0000000000000000E+00    0.0000000000000000E+00    0.0000000000000000E+00
 -0.3223   0.6260    0.2726201498997903E-01    0.0000000000000000E+00    0.0000000000000000E+00   -0.4816887458491484E+00   -0.4268698016199607E-02    0.0000000000000000E+00    0.0000000000000000E+00    0.0000000000000000E+00    0.0000000000000000E+00    0.0000000000000000E+00
 -0.3240   0.6209    0.2964559178548886E-01    0.0000000000000000E+00    0.0000000000000000E+00   -0.4588969759150947E+00   -0.2589614411314607E-01    0.0000000000000000E+00    0.0000000000000000E+00    0.0000000000000000E+00    0.0000000000000000E+00    0.0000000000000000E+00
 -0.3263   0.6138    0.3284689799183673E-01    0.0000000000000000E+00    0.0000000000000000E+00   -0.4272262137303438E+00   -0.6933511441717104E-01    0.0000000000000000E+00    0.0000000000000000E+00    0.0000000000000000E+00    0.0000000000000000E+00    0.0000000000000000E+00
 -0.3292   0.6048    0.3671593174369137E-01    0.0000000000000000E+00    0.0000000000000000E+00   -0.3870443901112470E+00   -0.1281789241672996E+00    0.0000000000000000E+00    0.0000000000000000E+00    0.0000000000000000E+00    0.0000000000000000E+00    0.0000000000000000E+00
 -0.3328   0.5938    0.4102112166359718E-01    0.0000000000000000E+00    0.0000000000000000E+00   -0.3390123556338305E+00   -0.1908981948547918E+00    0.0000000000000000E+00    0.0000000000000000E+00    0.0000000000000000E+00    0.0000000000000000E+00    0.0000000000000000E+00
 -0.3370   0.5810    0.4545345548836603E-01    0.0000000000000000E+00    0.0000000000000000E+00   -0.2842076392364227E+00   -0.2453371350135600E+00    0.0000000000000000E+00    0.0000000000000000E+00    0.0000000000000000E+00    0.0000000000000000E+00    0.0000000000000000E+00
 -0.3417   0.5663    0.4964255255069693E-01    0.0000000000000000E+00    0.0000000000000000E+00   -0.2242277990751209E+00   -0.2831930818445633E+00    0.0000000000000000E+00    0.0000000000000000E+00    0.0000000000000000E+00    0.0000000000000000E+00    0.0000000000000000E+00
 -0.3471   0.5499    0.5318951076565883E-01    0.0000000000000000E+00    0.0000000000000000E+00   -0.1612265556249547E+00   -0.3044355392579390E+00    0.0000000000000000E+00    0.0000000000000000E+00    0.0000000000000000E+00    0.0000000000000000E+00    0.0000000000000000E+00
 -0.3529   0.5318    0.5571571801399161E-01    0.0000000000000000E+00    0.0000000000000000E+00   -0.9783846103063361E-01   -0.3208247889824559E+00    0.0000000000000000E+00    0.0000000000000000E+00    0.0000000000000000E+00    0.0000000000000000E+00    0.0000000000000000E+00
 -0.3594   0.5120    0.5692312033855536E-01    0.0000000000000000E+00    0.0000000000000000E+00   -0.3696966238241992E-01   -0.3558012880113081E+00    0.0000000000000000E+00    0.0000000000000000E+00    0.0000000000000000E+00    0.0000000000000000E+00    0.0000000000000000E+00
 -0.3663   0.4908    0.5664632992180134E-01    0.0000000000000000E+00    0.0000000000000000E+00    0.1853511119731303E-01   -0.4390537802964419E+00    0.0000000000000000E+00    0.0000000000000000E+00    0.0000000000000000E+00    0.0000000000000000E+00    0.0000000000000000E+00
 -0.3737   0.4680    0.5487475289023038E-01    0.0000000000000000E+00    0.0000000000000000E+00    0.6630663951418526E-01   -0.5978428390587475E+00    0.0000000000000000E+00    0.0000000000000000E+00    0.0000000000000000E+00    0.0000000000000000E+00    0.0000000000000000E+00
 -0.3815   0.4440    0.5173524184503498E-01    0.0000000000000000E+00    0.0000000000000000E+00    0.1048672132167015E+00   -0.8505356240367814E+00    0.0000000000000000E+00    0.0000000000000000E+00    0.0000000000000000E+00    0.0000000000000000E+00    0.0000000000000000E+00
 -0.3897   0.4187    0.4745015935084890E-01    0.0000000000000000E+00    0.0000000000000000E+00    0.1339241969190286E+00   -0.1206248397460309E+01    0.0000000000000000E+00    0.0000000000000000E+00    0.0000000000000000E+00    0.0000000000000000E+00    0.0000000000000000E+00
 -0.3983   0.3923    0.4229536598557307E-01    0.0000000000000000E+00    0.0000000000000000E+00    0.1543982334789729E+00   -0.1668835350833377E+01    0.0000000000000000E+00    0.0000000000000000E+00    0.0000000000000000E+00    0.0000000000000000E+00    0.0000000000000000E+00
 -0.4072   0.3648    0.3657362428653806E-01    0.0000000000000000E+00    0.0000000000000000E+00    0.1681168741956927E+00   -0.2240066595931292E+01    0.0000000000000000E+00    0.0000000000000000E+00    0.0000000000000000E+00    0.0000000000000000E+00    0.0000000000000000E+00
 -0.4164   0.3365    0.3060322378630038E-01    0.0000000000000000E+00    0.0000000000000000E+00    0.1772707583605740E+00   -0.2919041547924701E+01    0.0000000000000000E+00    0.0000000000000000E+00    0.0000000000000000E+00    0.0000000000000000E+00    0.0000000000000000E+00
 -0.4259   0.3074    0.2471553355272246E-01    0.0000000000000000E+00    0.0000000000000000E+00    0.1838686924170814E+00   -0.3699044268126165E+01    0.0000000000000000E+00    0.0000000000000000E+00    0.0000000000000000E+00    0.0000000000000000E+00    0.0000000000000000E+00
 -0.4355   0.2776    0.1925393493398173E-01    0.0000000000000000E+00    0.0000000000000000E+00    0.1894102980070481E+00   -0.4564599435522642E+01    0.0000000000000000E+00    0.0000000000000000E+00    0.0000000000000000E+00    0.0000000000000000E+00    0.0000000000000000E+00
 -0.4454   0.2473    0.1456715119729801E-01    0.0000000000000000E+00    0.0000000000000000E+00    0.1948356560874109E+00   -0.5490497276947430E+01    0.0000000000000000E+00    0.0000000000000000E+00    0.0000000000000000E+00    0.0000000000000000E+00    0.0000000000000000E+00
 -0.4554   0.2166    0.1099227788763531E-01    0.0000000000000000E+00    0.0000000000000000E+00    0.2006555647905210E+00   -0.6443010537206708E+01    0.0000000000000000E+00    0.0000000000000000E+00    0.0000000000000000E+00    0.0000000000000000E+00    0.0000000000000000E+00
 -0.4654   0.1856    0.8828593791811301E-02    0.0000000000000000E+00    0.0000000000000000E+00    0.2071240457218718E+00   -0.7382514914290469E+01    0.0000000000000000E+00    0.0000000000000000E+00    0.0000000000000000E+00    0.0000000000000000E+00    0.0000000000000000E+00
 -0.4755   0.1545    0.8307233154340104E-02    0.0000000000000000E+00    0.0000000000000000E+00    0.2143686349618272E+00   -0.8266339177664833E+01    0.0000000000000000E+00    0.0000000000000000E+00    0.0000000000000000E+00    0.0000000000000000E+00    0.0000000000000000E+00
 -0.4856   0.1234    0.9562247031544145E-02    0.0000000000000000E+00    0.0000000000000000E+00    0.2224620229390681E+00   -0.9050961075087466E+01    0.0000000000000000E+00    0.0000000000000000E+00    0.0000000000000000E+00    0.0000000000000000E+00    0.0000000000000000E+00
 -0.4957   0.0924    0.1260587395961976E-01    0.0000000000000000E+00    0.0000000000000000E+00    0.2314523941152568E+00   -0.9693350983016366E+01    0.0000000000000000E+00    0.0000000000000000E+00    0.0000000000000000E+00    0.0000000000000000E+00    0.0000000000000000E+00
 -0.5057   0.0617    0.1730899624274322E-01    0.0000000000000000E+00    0.0000000000000000E+00    0.2413726982772908E+00   -0.1015202727237319E+02    0.0000000000000000E+00    0.0000000000000000E+00    0.0000000000000000E+00    0.0000000000000000E+00    0.0000000000000000E+00
 -0.5155   0.0314    0.2338823798461196E-01    0.0000000000000000E+00    0.0000000000000000E+00    0.2522411978347621E+00   -0.1038880716327881E+02    0.0000000000000000E+00    0.0000000000000000E+00    0.0000000000000000E+00    0.0000000000000000E+00    0.0000000000000000E+00
 -0.5252   0.0017    0.3040438031443276E-01    0.0000000000000000E+00    0.0000000000000000E+00    0.2640589143662770E+00   -0.1037217834206912E+02    0.0000000000000000E+00    0.0000000000000000E+00    0.0000000000000000E+00    0.0000000000000000E+00    0.0000000000000000E+00
 -0.5347  -0.0275    0.3778007185849423E-01    0.0000000000000000E+00    0.0000000000000000E+00    0.2768063097790439E+00   -0.1008256956367773E+02    0.0000000000000000E+00    0.0000000000000000E+00    0.0000000000000000E+00    0.0000000000000000E+00    0.0000000000000000E+00
 -0.5439  -0.0558    0.4484526575018842E-01    0.0000000000000000E+00    0.0000000000000000E+00    0.2904403708501661E+00   -0.9518740030891857E+01    0.0000000000000000E+00    0.0000000000000000E+00    0.0000000000000000E+00    0.0000000000000000E+00    0.0000000000000000E+00
 -0.5528  -0.0833    0.5091321948970792E-01    0.0000000000000000E+00    0.0000000000000000E+00    0.3048928481419419E+00   -0.8703301467533141E+01    0.0000000000000000E+00    0.0000000000000000E+00    0.0000000000000000E+00    0.0000000000000000E+00    0.0000000000000000E+00
 -0.5614  -0.1097    0.5537820896431868E-01    0.0000000000000000E+00    0.0000000000000000E+00    0.3200700016897530E+00   -0.7684724034346571E+01    0.0000000000000000E+00    0.0000000000000000E+00    0.0000000000000000E+00    0.0000000000000000E+00    0.0000000000000000E+00
 -0.5696  -0.1350    0.5781268360463437E-01    0.0000000000000000E+00    0.0000000000000000E+00    0.3358535715377299E+00   -0.6533653934563697E+01    0.0000000000000000E+00    0.0000000000000000E+00    0.0000000000000000E+00    0.0000000000000000E+00    0.0000000000000000E+00
 -0.5774  -0.1590    0.5803475820892684E-01    0.0000000000000000E+00    0.0000000000000000E+00    0.3521019130884316E+00   -0.5333301049268199E+01    0.0000000000000000E+00    0.0000000000000000E+00    0.0000000000000000E+00    0.0000000000000000E+00    0.0000000000000000E+00
 -0.5848  -0.1817    0.5612361194488564E-01    0.0000000000000000E+00    0.0000000000000000E+00    0.3686497128778478E+00   -0.4166191112634294E+01    0.0000000000000000E+00    0.0000000000000000E+00    0.0000000000000000E+00    0.0000000000000000E+00    0.0000000000000000E+00
 -0.5917  -0.2030    0.5237924246960282E-01    0.0000000000000000E+00    0.0000000000000000E+00    0.3853050142699299E+00   -0.3101391506677588E+01    0.0000000000000000E+00    0.0000000000000000E+00    0.0000000000000000E+00    0.0000000000000000E+00    0.0000000000000000E+00
 -0.5981  -0.2228    0.4724416772068428E-01    0.0000000000000000E+00    0.0000000000000000E+00    0.4018438551817674E+00   -0.2186081989142318E+01    0.0000000000000000E+00    0.0000000000000000E+00    0.0000000000000000E+00    0.0000000000000000E+00    0.0000000000000000E+00
 -0.6040  -0.2409    0.4121581185160914E-01    0.0000000000000000E+00    0.0000000000000000E+00    0.4180053732403593E+00   -0.1443367465241076E+01    0.0000000000000000E+00    0.0000000000000000E+00    0.0000000000000000E+00    0.0000000000000000E+00    0.0000000000000000E+00
 -0.6093  -0.2573    0.3477521426520225E-01    0.0000000000000000E+00    0.0000000000000000E+00    0.4334924327281821E+00   -0.8755205979676666E+00    0.0000000000000000E+00    0.0000000000000000E+00    0.0000000000000000E+00    0.0000000000000000E+00    0.0000000000000000E+00
 -0.6141  -0.2720    0.2834462600572038E-01    0.0000000000000000E+00    0.0000000000000000E+00    0.4479827061423934E+00   -0.4701490561310926E+00    0.0000000000000000E+00    0.0000000000000000E+00    0.0000000000000000E+00    0.0000000000000000E+00    0.0000000000000000E+00
 -0.6183  -0.2848    0.2227271404476994E-01    0.0000000000000000E+00    0.0000000000000000E+00    0.4611515206725591E+00   -0.2062054867801734E+00    0.0000000000000000E+00    0.0000000000000000E+00    0.0000000000000000E+00    0.0000000000000000E+00    0.0000000000000000E+00
 -0.6218  -0.2958    0.1683658510876405E-01    0.0000000000000000E+00    0.0000000000000000E+00    0.4727017724798572E+00   -0.5784928010081303E-01    0.0000000000000000E+00    0.0000000000000000E+00    0.0000000000000000E+00    0.0000000000000000E+00    0.0000000000000000E+00
 -0.6248  -0.3048    0.1224699597686380E-01    0.0000000000000000E+00    0.0000000000000000E+00    0.4823912421166525E+00    0.4575387173730580E-02    0.0000000000000000E+00    0.0000000000000000E+00    0.0000000000000000E+00    0.0000000000000000E+00    0.0000000000000000E+00
 -0.6271  -0.3119    0.8646169620874122E-02    0.0000000000000000E+00    0.0000000000000000E+00    0.4900473520486296E+00    0.1418463365328896E-01    0.0000000000000000E+00    0.0000000000000000E+00    0.0000000000000000E+00    0.0000000000000000E+00    0.0000000000000000E+00
 -0.6287  -0.3170    0.6097947783972940E-02    0.0000000000000000E+00    0.0000000000000000E+00    0.4955648109550971E+00    0.4892065437731985E-02    0.0000000000000000E+00    0.0000000000000000E+00    0.0000000000000000E+00    0.0000000000000000E+00    0.0000000000000000E+00
 -0.6297  -0.3200    0.4584146846268696E-02    0.0000000000000000E+00    0.0000000000000000E+00    0.4988897883011146E+00   -0.8129711486446366E-04    0.0000000000000000E+00    0.0000000000000000E+00    0.0000000000000000E+00    0.0000000000000000E+00    0.0000000000000000E+00
 -0.6300  -0.3210    0.4078623728870988E-02    0.0000000000000000E+00    0.0000000000000000E+00    0.5000000000000000E+00    0.0000000000000000E+00    0.0000000000000000E+00    0.0000000000000000E+00    0.0000000000000000E+00    0.0000000000000000E+00    0.0000000000000000E+00
 -0.3200   0.6297    0.2544288212256760E-01    0.0000000000000000E+00    0.0000000000000000E+00   -0.5000000000000000E+00    0.1297890365677333E-03    0.0000000000000000E+00    0.0000000000000000E+00    0.0000000000000000E+00    0.0000000000000000E+00    0.0000000000000000E+00
 -0.3203   0.6287    0.2594794506346047E-01    0.1177399828800939E-06   -0.1177580935652706E-06   -0.4954165542379507E+00   -0.5825090564159902E-03   -0.7301311154109553E-10    0.1447255169927195E-08   -0.7754875300941544E-13   -0.9675116610652346E-13   -0.5991112879237537E-11
 -0.3213   0.6256    0.2742808596640401E-01    0.5083078375970169E-05   -0.1490859524760414E-05   -0.4816882577979140E+00   -0.5506676371592694E-02   -0.2601766850598608E-08    0.1446786242458725E-08   -0.1214232707436036E-12   -0.1754724837654820E-12   -0.2250957970365008E-10
 -0.3230   0.6206    0.2981117612897916E-01    0.2688639149559333E-04   -0.2851015958414082E-05   -0.4588958522655526E+00   -0.2444890764666188E-01   -0.1457757879932408E-07    0.1447273545798766E-08   -0.1441008770641794E-12   -0.1304286539882682E-12   -0.5071737214229488E-10
 -0.3253   0.6135    0.3300529795158278E-01    0.7111362869284950E-04   -0.3459396964781440E-05   -0.4272241519509573E+00   -0.6363621671495302E-01   -0.3859405598274047E-07    0.1449234468542393E-08   -0.5568046024251316E-12   -0.7573802696114740E-13   -0.8888951553986946E-10
 -0.3282   0.6045    0.3686053937830060E-01    0.1320195935175244E-03   -0.3372167879733800E-05   -0.3870410723232326E+00   -0.1185351483098838E+00   -0.7159475722658267E-07    0.1452014306534133E-08   -0.1693485629505886E-11   -0.7148621972152824E-13   -0.1348577291504505E-09
 -0.3318   0.5935    0.4114684474632371E-01    0.1978268409683816E-03   -0.2737700477186676E-05   -0.3390074920540556E+00   -0.1787587654291953E+00   -0.1070348686779481E-06    0.1454381952543937E-08   -0.3676895593551777E-11   -0.4564577882337773E-13   -0.1838463548065050E-09
 -0.3359   0.5807    0.4555679363778582E-01    0.2558796749514016E-03   -0.1872947220194586E-05   -0.2842010289068798E+00   -0.2327657753185229E+00   -0.1381653587374150E-06    0.1454894516493555E-08   -0.6376690842024857E-11   -0.3956210359312706E-13   -0.2250012121063349E-09
 -0.3407   0.5660    0.4972198630084210E-01    0.2974276021951507E-03   -0.1037029362511450E-05   -0.2242193950330495E+00   -0.2725373174317884E+00   -0.1602119740051281E-06    0.1452281938804645E-08   -0.9467638478755092E-11   -0.7370406368556459E-13   -0.2416027378160379E-09
 -0.3460   0.5496    0.5324571505779670E-01    0.3223626262024877E-03   -0.5524650500669518E-06   -0.1612165146439776E+00   -0.2978795781634156E+00   -0.1731789644664208E-06    0.1445480155709555E-08   -0.1254977025078041E-10   -0.5953007184422709E-13   -0.2101685353528282E-09
 -0.3519   0.5314    0.5575152382814922E-01    0.3429387238655420E-03   -0.6611293196076463E-06   -0.9782716018332302E-01   -0.3199377816530335E+00   -0.1836479835401542E-06    0.1433369220408057E-08   -0.1526685982494724E-10   -0.6107657782306042E-13   -0.1016355610783393E-09
 -0.3583   0.5117    0.5694289152627263E-01    0.3837051510897203E-03   -0.1491362667773108E-05   -0.3695767820317696E-01   -0.3611207514185384E+00   -0.2048841033632234E-06    0.1414398840236808E-08   -0.1738751156943330E-10   -0.1148031322784071E-12    0.1108510921943306E-09
 -0.3653   0.4904    0.5665492494933955E-01    0.4758611139333787E-03   -0.2940759031780782E-05    0.1854705419738380E-01   -0.4500330838262271E+00   -0.2536696938720176E-06    0.1386163685571096E-08   -0.1882846656364734E-10   -0.1579847364041598E-12    0.4463930614040379E-09
 -0.3726   0.4677    0.5487658864883344E-01    0.6481802595603915E-03   -0.4769194912231093E-05    0.6631775116442738E-01   -0.6131636056500458E+00   -0.3454953095129150E-06    0.1345282135689629E-08   -0.1960284712332339E-10   -0.1988235964756058E-12    0.9066545847424834E-09
 -0.3805   0.4437    0.5173393140095693E-01    0.9201771175033751E-03   -0.6707509758343007E-05    0.1048767624848671E+00   -0.8686098371517056E+00   -0.4908214808721482E-06    0.1287756698151177E-08   -0.1973504692998063E-10   -0.2588623759791631E-12    0.1469946914189890E-08
 -0.3887   0.4184    0.4744866495027115E-01    0.1301620231436601E-02   -0.8611256672006191E-05    0.1339316712379827E+00   -0.1225504631430149E+01   -0.6948838776144249E-06    0.1209873021212893E-08   -0.1916103387067380E-10   -0.3357175648588395E-12    0.2090063039306145E-08
 -0.3973   0.3919    0.4229616167238592E-01    0.1796616337999955E-02   -0.1043910110242292E-04    0.1544034721094329E+00   -0.1687670180780829E+01   -0.9598790100938692E-06    0.1109295048179471E-08   -0.1770749519236503E-10   -0.4150568777561148E-12    0.2704032983635862E-08
 -0.4062   0.3645    0.3657856052164859E-01    0.2406903417955038E-02   -0.1219271856066089E-04    0.1681200903539756E+00   -0.2256581564438876E+01   -0.1286767944511629E-05    0.9859110541854399E-09   -0.1508475983014179E-10   -0.4281852650223072E-12    0.3247202458311893E-08
 -0.4154   0.3362    0.3061318672376038E-01    0.3131240005947158E-02   -0.1382049671272870E-04    0.1772724207871462E+00   -0.2930819975937087E+01   -0.1674934888523071E-05    0.8422894881565668E-09   -0.1094901946885329E-10   -0.5240946565621130E-12    0.3670289993804032E-08
 -0.4248   0.3070    0.2473021869500427E-01    0.3962123502082347E-02   -0.1521987302428746E-04    0.1838693333410531E+00   -0.3703083619258903E+01   -0.2120418442904509E-05    0.6834435101188419E-09   -0.4928465621722999E-11   -0.5725975249504245E-12    0.3950613732851826E-08
 -0.4345   0.2773    0.1927185316602123E-01    0.4882732503493748E-02   -0.1624885192526796E-04    0.1894103557666543E+00   -0.4557420862175021E+01   -0.2614263105248670E-05    0.5165848478150270E-09    0.3271393572701342E-11   -0.6466910340563459E-12    0.4091991954915247E-08
 -0.4444   0.2469    0.1458585796014563E-01    0.5865957021719325E-02   -0.1677952754474777E-04    0.1948354135968412E+00   -0.5468394970183634E+01   -0.3141974885015353E-05    0.3504436116297249E-09    0.1377718078510171E-10   -0.6931261120612930E-12    0.4116158817436821E-08
 -0.4543   0.2162    0.1100867516931756E-01    0.6875746876734353E-02   -0.1671133071221311E-04    0.2006551690916172E+00   -0.6402382441549939E+01   -0.3684253569174898E-05    0.1948790920303090E-09    0.2643690821813038E-10   -0.7383399447391525E-12    0.4051901247685563E-08
 -0.4644   0.1853    0.8839227871067869E-02    0.7869927451608453E-02   -0.1599066350954404E-04    0.2071235582424456E+00   -0.7320218516385626E+01   -0.4218472967609792E-05    0.6009466535505936E-10    0.4077280180148080E-10   -0.7380346334073806E-12    0.3926211637923782E-08
 -0.4745   0.1542    0.8308478113279328E-02    0.8803237502256093E-02   -0.1458898042950367E-04    0.2143680748185622E+00   -0.8180014302677804E+01   -0.4720340582655678E-05   -0.4427622157798794E-10    0.5598410623974814E-10   -0.7034511861903070E-12    0.3760915899021777E-08
 -0.4846   0.1231    0.9550397172568940E-02    0.9629657694532367E-02   -0.1249573447557404E-04    0.2224613922927670E+00   -0.8939320967738436E+01   -0.5165110500281054E-05   -0.1103505307964436E-09    0.7102779475687271E-10   -0.6541156505335266E-12    0.3571678996831806E-08
 -0.4947   0.0921    0.1257714244990952E-01    0.1030383586849782E-01   -0.9695940983450711E-05    0.2314516898385829E+00   -0.9556436796240366E+01   -0.5528392505642071E-05   -0.1329601602428898E-09    0.8476908064380950E-10   -0.5653602586086492E-12    0.3369881732169511E-08
 -0.5047   0.0614    0.1725954836391246E-01    0.1078221045449169E-01   -0.6182228673539428E-05    0.2413719166412732E+00   -0.9991465066166613E+01   -0.5786704122630836E-05   -0.1106533822903266E-09    0.9599249173319890E-10   -0.4423753030557975E-12    0.3162982904238165E-08
 -0.5145   0.0311    0.2331430757741871E-01    0.1102487106795229E-01   -0.1968112386928711E-05    0.2522403363980263E+00   -0.1020802269556002E+02   -0.5918526535231066E-05   -0.4647267856996984E-10    0.1036138952414944E-09   -0.2750508154569786E-12    0.2955822352504467E-08
 -0.5242   0.0013    0.3030259920895643E-01    0.1099911386195267E-01    0.2866388468854713E-05    0.2640579727867453E+00   -0.1017653013965252E+02   -0.5906152244709133E-05    0.5212567530388235E-10    0.1067447796820886E-09   -0.9048317650695026E-13    0.2751095396630321E-08
 -0.5336  -0.0278    0.3764797240097177E-01    0.1068496615740315E-01    0.8141452707623222E-05    0.2768052899770728E+00   -0.9879239965069848E+01   -0.5738736670471724E-05    0.1735853440154589E-09    0.1048697795269504E-09    0.1150815553963014E-12    0.2551435852524153E-08
 -0.5428  -0.0561    0.4468194064990040E-01    0.1008183761489495E-01    0.1354475614275328E-04    0.2904392764823356E+00   -0.9316298357471618E+01   -0.5415809303832144E-05    0.3035453798039267E-09    0.9793965638493773E-10    0.2787214903321455E-12    0.2356020920024626E-08
 -0.5518  -0.0836    0.5071988991350426E-01    0.9214214558034372E-02    0.1864966867690988E-04    0.3048916833370589E+00   -0.8510832190266465E+01   -0.4950453489010802E-05    0.4269770995102284E-09    0.8651046545793406E-10    0.4840572387365683E-12    0.2165798941231034E-08
 -0.5604  -0.1100    0.5515853215690180E-01    0.8133638191421698E-02    0.2296916559983721E-04    0.3200687692810052E+00   -0.7510671363295190E+01   -0.4370290353897849E-05    0.5308305670026492E-09    0.7182543448891465E-10    0.6238898286881067E-12    0.1979425571368987E-08
 -0.5686  -0.1353    0.5757251886448596E-01    0.6914740105903808E-02    0.2606328072374969E-04    0.3358522714988731E+00   -0.6384586575452480E+01   -0.3715479408909184E-05    0.6065013283262921E-09    0.5552247550610900E-10    0.7317063621670172E-12    0.1795442863827823E-08
 -0.5764  -0.1594    0.5778144572098776E-01    0.5645118703869674E-02    0.2764166617283160E-04    0.3521005423335618E+00   -0.5213032074838394E+01   -0.3033135035705348E-05    0.6512434966299274E-09    0.3941297288534429E-10    0.8255063299600351E-12    0.1612701685735352E-08
 -0.5838  -0.1821    0.5586485008756679E-01    0.4411480674028699E-02    0.2764050027454581E-04    0.3686482676939551E+00   -0.4075452598499366E+01   -0.2370004736532168E-05    0.6679451783342394E-09    0.2508607210849334E-10    0.8617273561384309E-12    0.1431510212451803E-08
 -0.5907  -0.2033    0.5212201807031019E-01    0.3286317288020643E-02    0.2621851153550696E-04    0.3853034960463250E+00   -0.3038225525224572E+01   -0.1765097905483174E-05    0.6634704313723816E-09    0.1362024382167704E-10    0.8159029007970275E-12    0.1250636675817485E-08
 -0.5971  -0.2231    0.4699394942279178E-01    0.2319137879035715E-02    0.2369597185970329E-04    0.4018422786271080E+00   -0.2146643391692730E+01   -0.1245152423534555E-05    0.6461548449077092E-09    0.5417666315565839E-11    0.8352207814255053E-12    0.1071918399528360E-08
 -0.6030  -0.2412    0.4097633328641512E-01    0.1534200484553516E-02    0.2044510436944566E-04    0.4180037742801684E+00   -0.1422945175807683E+01   -0.8231678880675166E-06    0.6236801769476941E-09    0.3028757800116466E-12    0.7800149415260194E-12    0.8970745864894658E-09
 -0.6083  -0.2576    0.3454864617502822E-01    0.9339006275779293E-03    0.1679882137380711E-04    0.4334908717777108E+00   -0.8693036001939382E+00   -0.5005168910141722E-06    0.6016871584302308E-09   -0.2304125640284482E-11    0.7214645547648502E-12    0.7292637639599864E-09
 -0.6131  -0.2723    0.2813212068865584E-01    0.5051759294675990E-03    0.1298856172873174E-04    0.4479812627775622E+00   -0.4737482137471431E+00   -0.2700702626660126E-06    0.5834456529019150E-09   -0.3153379467268902E-11    0.7012099234593450E-12    0.5712230116000638E-09
 -0.6173  -0.2852    0.2207477321340015E-01    0.2257538767689840E-03    0.9160578864198268E-05    0.4611502785527724E+00   -0.2156670343578891E+00   -0.1199850259554375E-06    0.5701285034354076E-09   -0.2962078499146870E-11    0.6934106067113532E-12    0.4270789347171622E-09
 -0.6208  -0.2961    0.1665316775988384E-01    0.6812477770704551E-04    0.5444499671501673E-05    0.4727007979609115E+00   -0.6957501659110633E-01   -0.3535123176448955E-07    0.5615145848292258E-09   -0.2332290610640442E-11    0.6695581589166721E-12    0.3004645135126771E-09
 -0.6238  -0.3051    0.1207677339441558E-01    0.6503770708004102E-06    0.2119103286598560E-05    0.4823905641983938E+00   -0.5909239556068160E-02    0.5831543199852582E-09    0.5564009825792526E-09   -0.1671076471643218E-11    0.6731490365119441E-12    0.1939630027772421E-09
 -0.6260  -0.3122    0.8485176379973963E-02   -0.1191412345437607E-04   -0.3130319210451025E-06    0.4900469525478607E+00    0.7898680172279465E-02    0.7012004880633905E-08    0.5533349450295363E-09   -0.1212707018138914E-11    0.6608763329404963E-12    0.1098557377877951E-09
 -0.6277  -0.3173    0.5938049776393599E-02   -0.4645287370841862E-05   -0.1150532517123888E-05    0.4955646301355370E+00    0.3863861096147360E-02    0.2522147324071466E-08    0.5503487910622079E-09   -0.9608008832984183E-12    0.7256651876619280E-12    0.4876581994120444E-10
 -0.6287  -0.3203    0.4421903720550546E-02   -0.1726259317299187E-06   -0.1727606035417193E-06    0.4988897429149141E+00    0.6483336969805823E-03    0.1472824358570627E-09    0.5470686695535978E-09   -0.5038938016843630E-12    0.5031925397191994E-12    0.1253373912903782E-10
 -0.6290  -0.3214    0.3916196586101359E-02    0.0000000000000000E+00    0.0000000000000000E+00    0.5000000000000000E+00   -0.8085257807672371E-04    0.0000000000000000E+00    0.0000000000000000E+00    0.0000000000000000E+00    0.0000000000000000E+00    0.0000000000000000E+00
 -0.3170   0.6287    0.2594887526568889E-01    0.0000000000000000E+00    0.0000000000000000E+00   -0.5000000000000000E+00   -0.4266946149033795E-02    0.0000000000000000E+00    0.0000000000000000E+00    0.0000000000000000E+00    0.0000000000000000E+00    0.0000000000000000E+00
 -0.3173   0.6277    0.2644889382866755E-01    0.1489881786360631E-05   -0.5081577788493038E-05   -0.4954147588635996E+00   -0.5505435857818011E-02   -0.2600870942790193E-08    0.1446565570887431E-08   -0.1344199274458391E-12   -0.2313895602901184E-12   -0.5726349190833535E-11
 -0.3183   0.6246    0.2792221938992986E-01    0.2156051508948370E-04   -0.2156453273330439E-04   -0.4816810352717379E+00   -0.9510994134612757E-02   -0.4565498706359091E-07    0.1446475900862554E-08   -0.3674061922753769E-12   -0.4774809020391402E-12   -0.2274077020442133E-10
 -0.3199   0.6196    0.3029787328401776E-01    0.9658622416980627E-04   -0.4068646207902183E-04   -0.4588793245170932E+00   -0.2158895149004934E-01   -0.2170615031914413E-06    0.1446996314435900E-08   -0.8604826920444175E-12   -0.2939020554704186E-12   -0.5069391000728229E-10
 -0.3222   0.6125    0.3347139149291065E-01    0.2505109214798180E-03   -0.5117730522933627E-04   -0.4271940018126917E+00   -0.4942684860380046E-01   -0.5669540452720560E-06    0.1448628560857257E-08   -0.2673280000142775E-11    0.1601600796430347E-12   -0.8905287098015524E-10
 -0.3252   0.6035    0.3728843292148783E-01    0.4709976705306212E-03   -0.5097211827170021E-04   -0.3869926995399257E+00   -0.9327751081381559E-01   -0.1059817137406988E-05    0.1451048978889924E-08   -0.7051886852238454E-11    0.6511336608783225E-12   -0.1351543044147974E-09
 -0.3287   0.5925    0.4152136224508540E-01    0.7187595564953479E-03   -0.4266671875715844E-04   -0.3389365876665332E+00   -0.1462517432192855E+00   -0.1603935970615949E-05    0.1453156088515595E-08   -0.1455351117396475E-10    0.9898453584566980E-12   -0.1838492101613465E-09
 -0.3329   0.5797    0.4586712059620780E-01    0.9478709752749296E-03   -0.3028835114255846E-04   -0.2841044676125184E+00   -0.1988831205275408E+00   -0.2096713853524403E-05    0.1453597617273594E-08   -0.2477449842497315E-10    0.1112282141391141E-11   -0.2251130393204903E-09
 -0.3377   0.5650    0.4996299584997071E-01    0.1125293588210462E-02   -0.1823301899866638E-04   -0.2240962528436521E+00   -0.2440127356298632E+00   -0.2465501338079094E-05    0.1451078136122108E-08   -0.3654531885444179E-10    0.1016905309958460E-11   -0.2418168026929735E-09