 title="result"
 variables="x","y","P","u","v","t","omega","psi","RES1","RES2","RES3","RES4"
zone,j= 49,i= 49,f=point
 -0.5000   0.5000    0.2270642375403039E-01    0.0000000000000000E+00    0.0000000000000000E+00   -0.5000000000000000E+00    0.0000000000000000E+00    0.0000000000000000E+00    0.0000000000000000E+00    0.0000000000000000E+00    0.0000000000000000E+00    0.0000000000000000E+00
 -0.5000   0.4989    0.2323693027607633E-01    0.0000000000000000E+00    0.0000000000000000E+00   -0.4963864398010594E+00   -0.3800725573567159E-03    0.0000000000000000E+00    0.0000000000000000E+00    0.0000000000000000E+00    0.0000000000000000E+00    0.0000000000000000E+00
 -0.5000   0.4957    0.2482455187977765E-01    0.0000000000000000E+00    0.0000000000000000E+00   -0.4855625672601694E+00   -0.4683939144717156E-02    0.0000000000000000E+00    0.0000000000000000E+00    0.0000000000000000E+00    0.0000000000000000E+00    0.0000000000000000E+00
 -0.5000   0.4904    0.2743825540057513E-01    0.0000000000000000E+00    0.0000000000000000E+00   -0.4675864714826179E+00   -0.1069174188540328E-02    0.0000000000000000E+00    0.0000000000000000E+00    0.0000000000000000E+00    0.0000000000000000E+00    0.0000000000000000E+00
 -0.5000   0.4830    0.3094366137097835E-01    0.0000000000000000E+00    0.0000000000000000E+00   -0.4425776836257906E+00    0.3567166993356554E-01    0.0000000000000000E+00    0.0000000000000000E+00    0.0000000000000000E+00    0.0000000000000000E+00    0.0000000000000000E+00
 -0.5000   0.4735    0.3507879002168515E-01    0.0000000000000000E+00    0.0000000000000000E+00   -0.4107397502684627E+00    0.1219093303097856E+00    0.0000000000000000E+00    0.0000000000000000E+00    0.0000000000000000E+00    0.0000000000000000E+00    0.0000000000000000E+00
 -0.5000   0.4619    0.3950377469717688E-01    0.0000000000000000E+00    0.0000000000000000E+00   -0.3723737924942967E+00    0.2558258181675484E+00    0.0000000000000000E+00    0.0000000000000000E+00    0.0000000000000000E+00    0.0000000000000000E+00    0.0000000000000000E+00
 -0.5000   0.4484    0.4384636866826366E-01    0.0000000000000000E+00    0.0000000000000000E+00   -0.3278862487574281E+00    0.4172825724102160E+00    0.0000000000000000E+00    0.0000000000000000E+00    0.0000000000000000E+00    0.0000000000000000E+00    0.0000000000000000E+00
 -0.5000   0.4330    0.4774708954925137E-01    0.0000000000000000E+00    0.0000000000000000E+00   -0.2778166837374079E+00    0.5722048129420902E+00    0.0000000000000000E+00    0.0000000000000000E+00    0.0000000000000000E+00    0.0000000000000000E+00    0.0000000000000000E+00
 -0.5000   0.4157    0.5089339441250337E-01    0.0000000000000000E+00    0.0000000000000000E+00   -0.2229232238667410E+00    0.6805155654414763E+00    0.0000000000000000E+00    0.0000000000000000E+00    0.0000000000000000E+00    0.0000000000000000E+00    0.0000000000000000E+00
 -0.5000   0.3967    0.5304108159165025E-01    0.0000000000000000E+00    0.0000000000000000E+00   -0.1643475683411772E+00    0.7059361014051152E+00    0.0000000000000000E+00    0.0000000000000000E+00    0.0000000000000000E+00    0.0000000000000000E+00    0.0000000000000000E+00
 -0.5000   0.3759    0.5401697950561556E-01    0.0000000000000000E+00    0.0000000000000000E+00   -0.1038296628584254E+00    0.6249162278342941E+00    0.0000000000000000E+00    0.0000000000000000E+00    0.0000000000000000E+00    0.0000000000000000E+00    0.0000000000000000E+00
 -0.5000   0.3536    0.5371186066358764E-01    0.0000000000000000E+00    0.0000000000000000E+00   -0.4385749992603122E-01    0.4305401318060333E+00    0.0000000000000000E+00    0.0000000000000000E+00    0.0000000000000000E+00    0.0000000000000000E+00    0.0000000000000000E+00
 -0.5000   0.3297    0.5207796827243510E-01    0.0000000000000000E+00    0.0000000000000000E+00    0.1243923866892828E-01    0.1292759964696488E+00    0.0000000000000000E+00    0.0000000000000000E+00    0.0000000000000000E+00    0.0000000000000000E+00    0.0000000000000000E+00
 -0.5000   0.3044    0.4914311897804621E-01    0.0000000000000000E+00    0.0000000000000000E+00    0.6181275804575275E-01   -0.2674585265373236E+00    0.0000000000000000E+00    0.0000000000000000E+00    0.0000000000000000E+00    0.0000000000000000E+00    0.0000000000000000E+00
 -0.5000   0.2778    0.4503161247355261E-01    0.0000000000000000E+00    0.0000000000000000E+00    0.1017717789176275E+00   -0.7513622314371076E+00    0.0000000000000000E+00    0.0000000000000000E+00    0.0000000000000000E+00    0.0000000000000000E+00    0.0000000000000000E+00
 -0.5000   0.2500    0.3997030622564468E-01    0.0000000000000000E+00    0.0000000000000000E+00    0.1314083089948575E+00   -0.1320524241897529E+01    0.0000000000000000E+00    0.0000000000000000E+00    0.0000000000000000E+00    0.0000000000000000E+00    0.0000000000000000E+00
 -0.5000   0.2211    0.3426800800801373E-01    0.0000000000000000E+00    0.0000000000000000E+00    0.1516576662537304E+00   -0.1977445967254764E+01    0.0000000000000000E+00    0.0000000000000000E+00    0.0000000000000000E+00    0.0000000000000000E+00    0.0000000000000000E+00
 -0.5000   0.1913    0.2828185688322321E-01    0.0000000000000000E+00    0.0000000000000000E+00    0.1647932114415858E+00   -0.2724078261462619E+01    0.0000000000000000E+00    0.0000000000000000E+00    0.0000000000000000E+00    0.0000000000000000E+00    0.0000000000000000E+00
 -0.5000   0.1607    0.2239036259967230E-01    0.0000000000000000E+00    0.0000000000000000E+00    0.1734868861030952E+00   -0.3556021555817985E+01    0.0000000000000000E+00    0.0000000000000000E+00    0.0000000000000000E+00    0.0000000000000000E+00    0.0000000000000000E+00
 -0.5000   0.1294    0.1697827569578077E-01    0.0000000000000000E+00    0.0000000000000000E+00    0.1800035334078807E+00   -0.4457812263665665E+01    0.0000000000000000E+00    0.0000000000000000E+00    0.0000000000000000E+00    0.0000000000000000E+00    0.0000000000000000E+00
 -0.5000   0.0975    0.1242245325946787E-01    0.0000000000000000E+00    0.0000000000000000E+00    0.1858631523866977E+00   -0.5401012208012053E+01    0.0000000000000000E+00    0.0000000000000000E+00    0.0000000000000000E+00    0.0000000000000000E+00    0.0000000000000000E+00
 -0.5000   0.0653    0.9068573322469109E-02    0.0000000000000000E+00    0.0000000000000000E+00    0.1919140141439011E+00   -0.6345717330974381E+01    0.0000000000000000E+00    0.0000000000000000E+00    0.0000000000000000E+00    0.0000000000000000E+00    0.0000000000000000E+00
 -0.5000   0.0327    0.7197244459590619E-02    0.0000000000000000E+00    0.0000000000000000E+00    0.1985705809341269E+00   -0.7244420843200686E+01    0.0000000000000000E+00    0.0000000000000000E+00    0.0000000000000000E+00    0.0000000000000000E+00    0.0000000000000000E+00
 -0.5000   0.0000    0.6986267610627726E-02    0.0000000000000000E+00    0.0000000000000000E+00    0.2060254961523171E+00   -0.8046561627462733E+01    0.0000000000000000E+00    0.0000000000000000E+00    0.0000000000000000E+00    0.0000000000000000E+00    0.0000000000000000E+00
 -0.5000  -0.0327    0.8476969826902993E-02    0.0000000000000000E+00    0.0000000000000000E+00    0.2143748984048380E+00   -0.8702544519615733E+01    0.0000000000000000E+00    0.0000000000000000E+00    0.0000000000000000E+00    0.0000000000000000E+00    0.0000000000000000E+00
 -0.5000  -0.0653    0.1155081027581253E-01    0.0000000000000000E+00    0.0000000000000000E+00    0.2236742443558312E+00   -0.9167052312096425E+01    0.0000000000000000E+00    0.0000000000000000E+00    0.0000000000000000E+00    0.0000000000000000E+00    0.0000000000000000E+00
 -0.5000  -0.0975    0.1592004449651163E-01    0.0000000000000000E+00    0.0000000000000000E+00    0.2339571102034505E+00   -0.9402174157682483E+01    0.0000000000000000E+00    0.0000000000000000E+00    0.0000000000000000E+00    0.0000000000000000E+00    0.0000000000000000E+00
 -0.5000  -0.1294    0.2113652407181481E-01    0.0000000000000000E+00    0.0000000000000000E+00    0.2452387163891737E+00   -0.9381072495991649E+01    0.0000000000000000E+00    0.0000000000000000E+00    0.0000000000000000E+00    0.0000000000000000E+00    0.0000000000000000E+00
 -0.5000  -0.1607    0.2662309285423958E-01    0.0000000000000000E+00    0.0000000000000000E+00    0.2575144097006308E+00   -0.9092367469466117E+01    0.0000000000000000E+00    0.0000000000000000E+00    0.0000000000000000E+00    0.0000000000000000E+00    0.0000000000000000E+00
 -0.5000  -0.1913    0.3173087232323031E-01    0.0000000000000000E+00    0.0000000000000000E+00    0.2707572019045966E+00   -0.8544546195926607E+01    0.0000000000000000E+00    0.0000000000000000E+00    0.0000000000000000E+00    0.0000000000000000E+00    0.0000000000000000E+00
 -0.5000  -0.2211    0.3581968947031987E-01    0.0000000000000000E+00    0.0000000000000000E+00    0.2849160031123283E+00   -0.7768773766579735E+01    0.0000000000000000E+00    0.0000000000000000E+00    0.0000000000000000E+00    0.0000000000000000E+00    0.0000000000000000E+00
 -0.5000  -0.2500    0.3834959888852562E-01    0.0000000000000000E+00    0.0000000000000000E+00    0.2999151397129136E+00   -0.6818223636419681E+01    0.0000000000000000E+00    0.0000000000000000E+00    0.0000000000000000E+00    0.0000000000000000E+00    0.0000000000000000E+00
 -0.5000  -0.2778    0.3896241217988863E-01    0.0000000000000000E+00    0.0000000000000000E+00    0.3156549672975973E+00   -0.5762708432998705E+01    0.0000000000000000E+00    0.0000000000000000E+00    0.0000000000000000E+00    0.0000000000000000E+00    0.0000000000000000E+00
 -0.5000  -0.3044    0.3753034108591533E-01    0.0000000000000000E+00    0.0000000000000000E+00    0.3320126176204358E+00   -0.4679083532644464E+01    0.0000000000000000E+00    0.0000000000000000E+00    0.0000000000000000E+00    0.0000000000000000E+00    0.0000000000000000E+00
 -0.5000  -0.3297    0.3415736076555274E-01    0.0000000000000000E+00    0.0000000000000000E+00    0.3488414008364531E+00   -0.3639716517626631E+01    0.0000000000000000E+00    0.0000000000000000E+00    0.0000000000000000E+00    0.0000000000000000E+00    0.0000000000000000E+00
 -0.5000  -0.3536    0.2913533540120315E-01    0.0000000000000000E+00    0.0000000000000000E+00    0.3659676089440079E+00   -0.2702360366281355E+01    0.0000000000000000E+00    0.0000000000000000E+00    0.0000000000000000E+00    0.0000000000000000E+00    0.0000000000000000E+00
 -0.5000  -0.3759    0.2287248275698567E-01    0.0000000000000000E+00    0.0000000000000000E+00    0.3831848040266402E+00   -0.1904203232045665E+01    0.0000000000000000E+00    0.0000000000000000E+00    0.0000000000000000E+00    0.0000000000000000E+00    0.0000000000000000E+00
 -0.5000  -0.3967    0.1581827873045770E-01    0.0000000000000000E+00    0.0000000000000000E+00    0.4002479253174409E+00   -0.1261147543914322E+01    0.0000000000000000E+00    0.0000000000000000E+00    0.0000000000000000E+00    0.0000000000000000E+00    0.0000000000000000E+00
 -0.5000  -0.4157    0.8404440164783023E-02    0.0000000000000000E+00    0.0000000000000000E+00    0.4168716318248321E+00   -0.7713598600836131E+00    0.0000000000000000E+00    0.0000000000000000E+00    0.0000000000000000E+00    0.0000000000000000E+00    0.0000000000000000E+00
 -0.5000  -0.4330    0.1010468561408747E-02    0.0000000000000000E+00    0.0000000000000000E+00    0.4327375912510967E+00   -0.4209638400235456E+00    0.0000000000000000E+00    0.0000000000000000E+00    0.0000000000000000E+00    0.0000000000000000E+00    0.0000000000000000E+00
 -0.5000  -0.4484   -0.6048148564365792E-02    0.0000000000000000E+00    0.0000000000000000E+00    0.4475128577245016E+00   -0.1896115496145072E+00    0.0000000000000000E+00    0.0000000000000000E+00    0.0000000000000000E+00    0.0000000000000000E+00    0.0000000000000000E+00
 -0.5000  -0.4619   -0.1251768264128354E-01    0.0000000000000000E+00    0.0000000000000000E+00    0.4608766996313595E+00   -0.5437693615976346E-01    0.0000000000000000E+00    0.0000000000000000E+00    0.0000000000000000E+00    0.0000000000000000E+00    0.0000000000000000E+00
 -0.5000  -0.4735   -0.1819911182294118E-01    0.0000000000000000E+00    0.0000000000000000E+00    0.4725486638624364E+00    0.8488895255000552E-02    0.0000000000000000E+00    0.0000000000000000E+00    0.0000000000000000E+00    0.0000000000000000E+00    0.0000000000000000E+00
 -0.5000  -0.4830   -0.2294463358216073E-01    0.0000000000000000E+00    0.0000000000000000E+00    0.4823090778343007E+00    0.2335000958886863E-01    0.0000000000000000E+00    0.0000000000000000E+00    0.0000000000000000E+00    0.0000000000000000E+00    0.0000000000000000E+00
 -0.5000  -0.4904   -0.2665933285537232E-01    0.0000000000000000E+00    0.0000000000000000E+00    0.4900058540808755E+00    0.1450142222003477E-01    0.0000000000000000E+00    0.0000000000000000E+00    0.0000000000000000E+00    0.0000000000000000E+00    0.0000000000000000E+00
 -0.5000  -0.4957   -0.2930533253767752E-01    0.0000000000000000E+00    0.0000000000000000E+00    0.4955471848670623E+00    0.3230359566548164E-02    0.0000000000000000E+00    0.0000000000000000E+00    0.0000000000000000E+00    0.0000000000000000E+00    0.0000000000000000E+00
 -0.5000  -0.4989   -0.3089315464454905E-01    0.0000000000000000E+00    0.0000000000000000E+00    0.4988854273049111E+00   -0.1594166852117395E-03    0.0000000000000000E+00    0.0000000000000000E+00    0.0000000000000000E+00    0.0000000000000000E+00    0.0000000000000000E+00
 -0.5000  -0.5000   -0.3142619787413632E-01    0.0000000000000000E+00    0.0000000000000000E+00    0.5000000000000000E+00    0.0000000000000000E+00    0.0000000000000000E+00    0.0000000000000000E+00    0.0000000000000000E+00    0.0000000000000000E+00    0.0000000000000000E+00
 -0.4989   0.5000    0.2270925102781191E-01    0.0000000000000000E+00    0.0000000000000000E+00   -0.5000000000000000E+00   -0.3800357920474476E-03    0.0000000000000000E+00    0.0000000000000000E+00    0.0000000000000000E+00    0.0000000000000000E+00    0.0000000000000000E+00
 -0.4989   0.4989    0.2323975809980418E-01    0.3643032363808958E-06   -0.3643139139457930E-06   -0.4963863727090745E+00   -0.5606620468046816E-03   -0.2594149629018117E-09   -0.3365866725960065E-09   -0.3862483792006766E-12   -0.3903498618090806E-12    0.3828992732688580E-11
 -0.4989   0.4957    0.2482548019667322E-01    0.3307593190206504E-05   -0.4489183661006558E-06   -0.4855623019138780E+00   -0.1433537112384763E-02   -0.2019342563450155E-08   -0.3392126784540830E-09   -0.7404979407432677E-12   -0.5771584416175510E-12    0.1483759859768896E-10
 -0.4989   0.4904    0.2743080756967744E-01   -0.2263723746762282E-05    0.1505521089975366E-05   -0.4675858995633039E+00    0.5460211601036756E-02    0.5907017834433999E-09   -0.3416183616371249E-09   -0.7879096680651898E-12   -0.5315938661487607E-12    0.3412246396897189E-10
 -0.4989   0.4830    0.3092399032702896E-01   -0.4113866672469719E-04    0.3987660150414791E-05   -0.4425767535329413E+00    0.4126756078624392E-01    0.2153568685934554E-07   -0.3434342792790757E-09   -0.7727690015668642E-12   -0.5420559834323768E-12    0.6118655582199040E-10
 -0.4989   0.4735    0.3504951084272945E-01   -0.1308256736322009E-03    0.5989143298170923E-05   -0.4107384713617387E+00    0.1225590170347016E+00    0.6995990211954259E-07   -0.3452042558055313E-09   -0.7351949994974238E-12   -0.5578384976168138E-12    0.9852577087521297E-10
 -0.4989   0.4619    0.3947020317121588E-01   -0.2701080743023471E-03    0.6839418219170450E-05   -0.3723721902816691E+00    0.2487944850051304E+00    0.1452682948668919E-06   -0.3471729084769670E-09   -0.6936742846797017E-12   -0.5701203398267296E-12    0.1483414138053751E-09
 -0.4989   0.4484    0.4381496342191859E-01   -0.4382958454629282E-03    0.6408756877760530E-05   -0.3278842900115623E+00    0.4015296787547561E+00    0.2360920972208438E-06   -0.3498484436176286E-09   -0.6175823741294550E-12   -0.5701168703797777E-12    0.2165494658590283E-09
 -0.4989   0.4330    0.4772375215142406E-01   -0.5997688124378474E-03    0.4753758327328066E-05   -0.2778142062728557E+00    0.5482466394424128E+00    0.3233232263531001E-06   -0.3537245548551615E-09   -0.4075073611886637E-12   -0.5913221301501181E-12    0.3103625030587143E-09
 -0.4989   0.4157    0.5088255433237940E-01   -0.7123164860739222E-03    0.2220788333898522E-05   -0.2229199069547481E+00    0.6501980672792675E+00    0.3841539044873828E-06   -0.3594226903949616E-09    0.9600653605446041E-13   -0.5820101345310746E-12    0.4386213614537837E-09
 -0.4989   0.3967    0.5304484390076163E-01   -0.7375035491265295E-03   -0.7515938004448784E-06   -0.1643429766853328E+00    0.6718290414596239E+00    0.3980132336671231E-06   -0.3675607077816695E-09    0.1075403655015350E-11   -0.5835570741907770E-12    0.6073596209299481E-09
 -0.4989   0.3759    0.5403511292999496E-01   -0.6501267597833405E-03   -0.3660719139026248E-05   -0.1038233914492226E+00    0.5896221957948581E+00    0.3513460942114734E-06   -0.3788604655691197E-09    0.2645536567591478E-11   -0.6008839259497023E-12    0.8136311069328883E-09
 -0.4989   0.3536    0.5374236455213489E-01   -0.4424549725904855E-03   -0.6170932488772337E-05   -0.4384941325718458E-01    0.3960289939984437E+00    0.2401250538679906E-06   -0.3940942953917226E-09    0.4812886200689093E-11   -0.6385204864844951E-12    0.1035988891895379E-08
 -0.4989   0.3297    0.5211829113204402E-01   -0.1209497396519391E-03   -0.8153013446231019E-05    0.1244876488635687E-01    0.9666275678122115E-01    0.6784501228702341E-07   -0.4137003621618174E-09    0.7502748422538730E-11   -0.5887790255343361E-12    0.1228421753207698E-08
 -0.4989   0.3044    0.4919117959786755E-01    0.3025115363715652E-03   -0.9720225981805395E-05    0.6182277404142592E-01   -0.2977176974893329E+00   -0.1590355979575873E-06   -0.4369526546144087E-09    0.1061711829564160E-10   -0.5434055982966868E-12    0.1325961090925531E-08
 -0.4989   0.2778    0.4508633379195121E-01    0.8191348178450403E-03   -0.1106373156319195E-04    0.1017810197821441E+00   -0.7789747719310628E+00   -0.4358274070845001E-06   -0.4612390747116279E-09    0.1408227701116260E-10   -0.4731839919891456E-12    0.1266360787066656E-08
 -0.4989   0.2500    0.4003141793386578E-01    0.1426719927359792E-02   -0.1235977600347011E-04    0.1314156915158369E+00   -0.1344915374164071E+01   -0.7613499601238732E-06   -0.4821532340049117E-09    0.1784518366410026E-10   -0.4219818938722142E-12    0.1019464186680086E-08
 -0.4989   0.2211    0.3433557732306079E-01    0.2127620620219515E-02   -0.1366674100495223E-04    0.1516627084869576E+00   -0.1997427220006544E+01   -0.1136947085826463E-05   -0.4945396418765124E-09    0.2185031322543551E-10   -0.3336775300510908E-12    0.6059160881366488E-09
 -0.4989   0.1913    0.2835568709956479E-01    0.2923499881095104E-02   -0.1494076670764221E-04    0.1647960977811781E+00   -0.2737670516787856E+01   -0.1563561421389935E-05   -0.4938270417587098E-09    0.2604419457874485E-10   -0.2159938894408242E-12    0.8924471578408699E-10
 -0.4989   0.1607    0.2246954796893639E-01    0.3809205330757464E-02   -0.1603005157123453E-04    0.1734881964717320E+00   -0.3560413630270988E+01   -0.2038534242612269E-05   -0.4768497784135572E-09    0.3030196059350398E-10   -0.1110916914015547E-12   -0.4522628330866363E-09
 -0.4989   0.1294    0.1706092011624524E-01    0.4767834732133289E-02   -0.1674095959152571E-04    0.1800038916299386E+00   -0.4449546850568859E+01   -0.2552862457006938E-05   -0.4419516766440701E-09    0.3436080933671981E-10    0.1779132396961813E-13   -0.9546462060531363E-09
 -0.4989   0.0975    0.1250572644014716E-01    0.5768803763249983E-02   -0.1687681077404109E-04    0.1858630152634604E+00   -0.5376367544520903E+01   -0.3090215910149778E-05   -0.3889700506132243E-09    0.3781418234094502E-10    0.1063177323956666E-12   -0.1380650996307686E-08
 -0.4989   0.0653    0.9148941834342349E-02    0.6769523388595550E-02   -0.1630013579639204E-04    0.1919136378102783E+00   -0.6301217534229766E+01   -0.3627761403215704E-05   -0.3190126079966049E-09    0.4019524990628298E-10    0.2268046861431117E-12   -0.1718476222000581E-08
 -0.4989   0.0327    0.7270825284154023E-02    0.7719542489711368E-02   -0.1493359680312179E-04    0.1985700798789736E+00   -0.7177348762046429E+01   -0.4138433163354011E-05   -0.2345167150752392E-09    0.4110051188277453E-10    0.3084754673920997E-12   -0.1971149359188129E-08
 -0.4989   0.0000    0.7049096338894003E-02    0.8565379492839786E-02   -0.1276466006246251E-04    0.2060249111065747E+00   -0.7955409066956088E+01   -0.4593479136803887E-05   -0.1391442377984831E-09    0.4033348655063662E-10    0.3342534582451151E-12   -0.2148782684771589E-08
 -0.4989  -0.0327    0.8525227970162122E-02    0.9254773833470986E-02   -0.9817490843250206E-05    0.2143742398159926E+00   -0.8587358927563885E+01   -0.4964785339751348E-05   -0.3736972190027110E-10    0.3788980240670980E-10    0.3594069486467788E-12   -0.2262043747626452E-08
 -0.4989  -0.0653    0.1158097152555849E-01    0.9740171489622047E-02   -0.6154642810214785E-05    0.2236735130074259E+00   -0.9029674852935782E+01   -0.5226720009575282E-05    0.6581171892172666E-10    0.3393757497249794E-10    0.3012694260728921E-12   -0.2320633217707535E-08
 -0.4989  -0.0975    0.1592909252688966E-01    0.9982008011973367E-02   -0.1875071418590248E-05    0.2339563052642240E+00   -0.9246353084895103E+01   -0.5357928178206864E-05    0.1655244682638446E-09    0.2882283300920108E-10    0.2252122099921650E-12   -0.2332841194524482E-08
 -0.4989  -0.1294    0.2112222994415214E-01    0.9952540243633845E-02    0.2858588083448470E-05    0.2452378381459903E+00   -0.9212400668810480E+01   -0.5343380811515380E-05    0.2575169253185572E-09    0.2296873802265509E-10    0.8885253643953206E-13   -0.2305199057681118E-08
 -0.4989  -0.1607    0.2658442984766711E-01    0.9640410172345121E-02    0.7805676085627811E-05    0.2575134601876710E+00   -0.8917980017419229E+01   -0.5176852571386846E-05    0.3385746908529663E-09    0.1686822903579355E-10   -0.7199102425303749E-13   -0.2243401311941007E-08
 -0.4989  -0.1913    0.3166841942450775E-01    0.9055201519727274E-02    0.1263717673419348E-04    0.2707561844730254E+00   -0.8372507280883092E+01   -0.4863385425272809E-05    0.4068739824225620E-09    0.1098970914270581E-10   -0.2443809044017087E-12   -0.2152411939654320E-08
 -0.4989  -0.2211    0.3573594704855338E-01    0.8230296401836911E-02    0.1696468690486095E-04    0.2849149212657059E+00   -0.7607185270717829E+01   -0.4420841900027885E-05    0.4621449195552074E-09    0.5824507542939728E-11   -0.4108102746869235E-12   -0.2036652357179092E-08
 -0.4989  -0.2500    0.3824897599867884E-01    0.7222076038542223E-02    0.2039722595891507E-04    0.2999139955508096E+00   -0.6674169683878966E+01   -0.3879502971067234E-05    0.5056477389575598E-09    0.1735500632094045E-11   -0.5688227666666990E-12   -0.1900386025627254E-08
 -0.4989  -0.2778    0.3885085373309827E-01    0.6104224258611291E-02    0.2262343371636615E-04    0.3156537602114214E+00   -0.5641308608354222E+01   -0.3278989693553227E-05    0.5396786698086409E-09   -0.1066535748606157E-11   -0.7550765568353768E-12   -0.1747944327473716E-08
 -0.4989  -0.3044    0.3741455365752445E-01    0.4957647208218343E-02    0.2348610066796249E-04    0.3320113441941556E+00   -0.4582890765385785E+01   -0.2662863022359766E-05    0.5670531891266428E-09   -0.2552374978037619E-11   -0.8493761249894760E-12   -0.1583711850897118E-08
 -0.4989  -0.3297    0.3404389906469404E-01    0.3858415249861744E-02    0.2301671348187612E-04    0.3488400569170200E+00   -0.3568669048721239E+01   -0.2072077358649862E-05    0.5902721228467911E-09   -0.2895406137071177E-11   -0.9598155603640635E-12   -0.1411976079460087E-08
 -0.4989  -0.3536    0.2902973637622284E-01    0.2867195424748237E-02    0.2142153585237722E-04    0.3659661943238346E+00   -0.2654220897652789E+01   -0.1539329691914220E-05    0.6111510464368308E-09   -0.2400149523573702E-11   -0.1010358463560124E-11   -0.1237566996797890E-08
 -0.4989  -0.3759    0.2277875762111705E-01    0.2023053905117578E-02    0.1901100070985029E-04    0.3831833290387605E+00   -0.1875350440214537E+01   -0.1085641810775871E-05    0.6305126351580093E-09   -0.1427510887275218E-11   -0.1037489538724401E-11   -0.1064530449901291E-08
 -0.4989  -0.3967    0.1573877098902793E-01    0.1342711740171390E-02    0.1612515769921114E-04    0.4002464172162191E+00   -0.1247382476020403E+01   -0.7200454422232773E-06    0.6484394514394420E-09   -0.3271966031448414E-12   -0.1052963272130114E-11   -0.8965375837555190E-09
 -0.4989  -0.4157    0.8340082613944312E-02    0.8242544111419730E-03    0.1304912191743601E-04    0.4168701378474980E+00   -0.7685882157153457E+00   -0.4414728672965339E-06    0.6645435937646660E-09    0.6546742314927911E-12   -0.1044601904975906E-11   -0.7371106537645833E-09
 -0.4989  -0.4330    0.9611821432053627E-03    0.4530759877178780E-03    0.9991336519764687E-05    0.4327361755839277E+00   -0.4255403380750655E+00   -0.2421050678766018E-06    0.6783682851563277E-09    0.1363286220024129E-11   -0.1029863694324007E-11   -0.5894784070592518E-09
 -0.4989  -0.4484   -0.6083013822639725E-02    0.2076924762138718E-03    0.7061780225823223E-05    0.4475115915103573E+00   -0.1984738169308443E+00   -0.1103342026402603E-06    0.6895671169487860E-09    0.1758780621141653E-11   -0.1007201266833846E-11   -0.4554153477942524E-09
 -0.4989  -0.4619   -0.1253915655710657E-01    0.6381045910254006E-04    0.4343978052263510E-05    0.4608756460051823E+00   -0.6489908604770907E-01   -0.3318262922359912E-07    0.6981793858329421E-09    0.1878382865916350E-11   -0.9955473945222337E-12   -0.3371108678665302E-09
 -0.4989  -0.4735   -0.1820871539609823E-01   -0.3831399276388374E-05    0.1920131350587301E-05    0.4725478625098713E+00   -0.1411249320935947E-02    0.2992370451228012E-08    0.7044516085914776E-09    0.1811491928682685E-11   -0.9811474549481503E-12   -0.2351761858171431E-09
 -0.4989  -0.4830   -0.2294486995648643E-01   -0.2113601029731657E-04    0.2427782575583060E-07    0.4823085345771074E+00    0.1609049750672507E-01    0.1196648316276415E-07    0.7091009223217110E-09    0.1656619286194427E-11   -0.9845776537814599E-12   -0.1512546186389907E-09
 -0.4989  -0.4904   -0.2665447944591743E-01   -0.1378144713913794E-04   -0.1056605507238513E-05    0.4900055397217222E+00    0.1117620296479981E-01    0.7726955536224498E-08    0.7128221192562872E-09    0.1492545670389589E-11   -0.9415866523976302E-12   -0.8532331915653280E-10
 -0.4989  -0.4957   -0.2930146809227371E-01   -0.3501102323453876E-05   -0.9894648169302500E-06    0.4955470439334813E+00    0.3427190728311841E-02    0.1825645642454740E-08    0.7170714716453475E-09    0.1313544650653753E-11   -0.9851212727507441E-12   -0.3793367356341726E-10
 -0.4989  -0.4989   -0.3089152944905878E-01   -0.6755318286709076E-07   -0.6785701804430714E-07    0.4988853920287096E+00    0.4464624757378956E-03    0.6108126414170806E-10    0.7216491324326703E-09    0.6948817606391988E-12   -0.6879093648881618E-12   -0.9517384493354375E-11
 -0.4989  -0.5000   -0.3142457347545215E-01    0.0000000000000000E+00    0.0000000000000000E+00    0.5000000000000000E+00   -0.1588389318671026E-03    0.0000000000000000E+00    0.0000000000000000E+00    0.0000000000000000E+00    0.0000000000000000E+00    0.0000000000000000E+00
 -0.4957   0.5000    0.2269620199585070E-01    0.0000000000000000E+00    0.0000000000000000E+00   -0.5000000000000000E+00   -0.4684154661039577E-02    0.0000000000000000E+00    0.0000000000000000E+00    0.0000000000000000E+00    0.0000000000000000E+00    0.0000000000000000E+00
 -0.4957   0.4989    0.2322860567953096E-01    0.4490193969505573E-06   -0.3307981181682508E-05   -0.4963853673336185E+00   -0.1434076296883101E-02   -0.2019545304790343E-08   -0.3391569280194323E-09   -0.5621731379024109E-12   -0.7412805178713677E-12    0.3766656637201743E-11
 -0.4957   0.4957    0.2481432195174154E-01   -0.8418387604257690E-06    0.8437993528547208E-06   -0.4855583221431009E+00    0.6816970809080319E-02   -0.1021903374244234E-07   -0.3401395584461120E-09   -0.1727091993725116E-11   -0.1760507538361988E-11    0.1502525946543709E-10
 -0.4957   0.4904    0.2740493744535090E-01   -0.3882490055179631E-04    0.2584373828809355E-04   -0.4675772573049157E+00    0.2141173761804701E-01    0.5696120831414318E-07   -0.3417957444851183E-09   -0.2477230226505256E-11   -0.2118819009133688E-11    0.3413634912935448E-10
 -0.4957   0.4830    0.3087088466886905E-01   -0.1909337739007907E-03    0.6103016775186819E-04   -0.4425624400743800E+00    0.5514257482270832E-01    0.3850840238468546E-06   -0.3434913881106283E-09   -0.2720485295371056E-11   -0.2226104717228949E-11    0.6120933013914476E-10
 -0.4957   0.4735    0.3497190253172629E-01   -0.5220033112619066E-03    0.9022983776521485E-04   -0.4107182537427900E+00    0.1229308881172067E+00    0.1118147067164035E-05   -0.3451950947308546E-09   -0.2751499115355438E-11   -0.2238653706854166E-11    0.9832250291719191E-10
 -0.4957   0.4619    0.3938081724604641E-01   -0.1033640907391284E-02    0.1034014571935621E-03   -0.3723460875042804E+00    0.2275572900055119E+00    0.2254298390073668E-05   -0.3471651091602190E-09   -0.2686510736094050E-11   -0.2267620119456026E-11    0.1483446265132526E-09
 -0.4957   0.4484    0.4373087822640735E-01   -0.1652955331956698E-02    0.9694446549367205E-04   -0.3278516118675395E+00    0.3551810795709833E+00    0.3628251186737654E-05   -0.3497926184814482E-09   -0.2449200564580423E-11   -0.2326468878655064E-11    0.2164894166711839E-09
 -0.4957   0.4330    0.4766149043124500E-01   -0.2247683958753033E-02    0.7186913396384764E-04   -0.2777726255365182E+00    0.4780176667639036E+00    0.4947839214330261E-05   -0.3535798459575190E-09   -0.1679351102623627E-11   -0.2435218693364050E-11    0.3103814323612841E-09