 title="result"
 variables="x","y","P","u","v","t","omega","psi","RES1","RES2","RES3","RES4"
zone,j= 49,i= 49,f=point
 -0.2799   0.6493    0.2526933329724931E-01    0.0000000000000000E+00    0.0000000000000000E+00   -0.5000000000000000E+00    0.0000000000000000E+00    0.0000000000000000E+00    0.0000000000000000E+00    0.0000000000000000E+00    0.0000000000000000E+00    0.0000000000000000E+00
 -0.2803   0.6483    0.2576378873225498E-01    0.0000000000000000E+00    0.0000000000000000E+00   -0.4952501825106959E+00    0.2548766417076853E-03    0.0000000000000000E+00    0.0000000000000000E+00    0.0000000000000000E+00    0.0000000000000000E+00    0.0000000000000000E+00
 -0.2815   0.6454    0.2720226641582078E-01    0.0000000000000000E+00    0.0000000000000000E+00   -0.4810237334157600E+00   -0.4421674960285241E-02    0.0000000000000000E+00    0.0000000000000000E+00    0.0000000000000000E+00    0.0000000000000000E+00    0.0000000000000000E+00
 -0.2835   0.6404    0.2951031177293440E-01    0.0000000000000000E+00    0.0000000000000000E+00   -0.4574059008425561E+00   -0.3268237551863663E-01    0.0000000000000000E+00    0.0000000000000000E+00    0.0000000000000000E+00    0.0000000000000000E+00    0.0000000000000000E+00
 -0.2862   0.6335    0.3261991581810327E-01    0.0000000000000000E+00    0.0000000000000000E+00   -0.4245955573942440E+00   -0.9526978427094956E-01    0.0000000000000000E+00    0.0000000000000000E+00    0.0000000000000000E+00    0.0000000000000000E+00    0.0000000000000000E+00
 -0.2897   0.6247    0.3641247351613094E-01    0.0000000000000000E+00    0.0000000000000000E+00   -0.3829978480725240E+00   -0.1866023899164552E+00    0.0000000000000000E+00    0.0000000000000000E+00    0.0000000000000000E+00    0.0000000000000000E+00    0.0000000000000000E+00
 -0.2940   0.6140    0.4068390534589572E-01    0.0000000000000000E+00    0.0000000000000000E+00   -0.3333561839794241E+00   -0.2905950249582878E+00    0.0000000000000000E+00    0.0000000000000000E+00    0.0000000000000000E+00    0.0000000000000000E+00    0.0000000000000000E+00
 -0.2990   0.6014    0.4513946501247556E-01    0.0000000000000000E+00    0.0000000000000000E+00   -0.2768982626367157E+00   -0.3869199932997664E+00    0.0000000000000000E+00    0.0000000000000000E+00    0.0000000000000000E+00    0.0000000000000000E+00    0.0000000000000000E+00
 -0.3047   0.5871    0.4940526275834095E-01    0.0000000000000000E+00    0.0000000000000000E+00   -0.2154431311133061E+00   -0.4581209648924193E+00    0.0000000000000000E+00    0.0000000000000000E+00    0.0000000000000000E+00    0.0000000000000000E+00    0.0000000000000000E+00
 -0.3111   0.5710    0.5306373408761467E-01    0.0000000000000000E+00    0.0000000000000000E+00   -0.1514034806187849E+00   -0.4968632831802778E+00    0.0000000000000000E+00    0.0000000000000000E+00    0.0000000000000000E+00    0.0000000000000000E+00    0.0000000000000000E+00
 -0.3181   0.5533    0.5570993966152396E-01    0.0000000000000000E+00    0.0000000000000000E+00   -0.8763689359763271E-01   -0.5117995436948263E+00    0.0000000000000000E+00    0.0000000000000000E+00    0.0000000000000000E+00    0.0000000000000000E+00    0.0000000000000000E+00
 -0.3258   0.5340    0.5702299522860377E-01    0.0000000000000000E+00    0.0000000000000000E+00   -0.2714971572801391E-01   -0.5284095445949174E+00    0.0000000000000000E+00    0.0000000000000000E+00    0.0000000000000000E+00    0.0000000000000000E+00    0.0000000000000000E+00
 -0.3340   0.5133    0.5682755867535567E-01    0.0000000000000000E+00    0.0000000000000000E+00    0.2729125809871523E-01   -0.5823937738532620E+00    0.0000000000000000E+00    0.0000000000000000E+00    0.0000000000000000E+00    0.0000000000000000E+00    0.0000000000000000E+00
 -0.3428   0.4911    0.5511848748813220E-01    0.0000000000000000E+00    0.0000000000000000E+00    0.7356021093615055E-01   -0.7081218201869400E+00    0.0000000000000000E+00    0.0000000000000000E+00    0.0000000000000000E+00    0.0000000000000000E+00    0.0000000000000000E+00
 -0.3522   0.4676    0.5203689176838182E-01    0.0000000000000000E+00    0.0000000000000000E+00    0.1105058853042313E+00   -0.9292697809753622E+00    0.0000000000000000E+00    0.0000000000000000E+00    0.0000000000000000E+00    0.0000000000000000E+00    0.0000000000000000E+00
 -0.3620   0.4428    0.4781775179010405E-01    0.0000000000000000E+00    0.0000000000000000E+00    0.1381305998149116E+00   -0.1257261417534379E+01    0.0000000000000000E+00    0.0000000000000000E+00    0.0000000000000000E+00    0.0000000000000000E+00    0.0000000000000000E+00
 -0.3723   0.4170    0.4274091784763543E-01    0.0000000000000000E+00    0.0000000000000000E+00    0.1575285687805375E+00   -0.1695923097508841E+01    0.0000000000000000E+00    0.0000000000000000E+00    0.0000000000000000E+00    0.0000000000000000E+00    0.0000000000000000E+00
 -0.3829   0.3902    0.3710432777837364E-01    0.0000000000000000E+00    0.0000000000000000E+00    0.1705555414192556E+00   -0.2246051933117118E+01    0.0000000000000000E+00    0.0000000000000000E+00    0.0000000000000000E+00    0.0000000000000000E+00    0.0000000000000000E+00
 -0.3939   0.3625    0.3121622151339260E-01    0.0000000000000000E+00    0.0000000000000000E+00    0.1793260656127070E+00   -0.2905874095469745E+01    0.0000000000000000E+00    0.0000000000000000E+00    0.0000000000000000E+00    0.0000000000000000E+00    0.0000000000000000E+00
 -0.4053   0.3341    0.2539627628824915E-01    0.0000000000000000E+00    0.0000000000000000E+00    0.1857365544273190E+00   -0.3668400560556532E+01    0.0000000000000000E+00    0.0000000000000000E+00    0.0000000000000000E+00    0.0000000000000000E+00    0.0000000000000000E+00
 -0.4168   0.3050    0.1997663962139869E-01    0.0000000000000000E+00    0.0000000000000000E+00    0.1911903182321820E+00   -0.4518636906617345E+01    0.0000000000000000E+00    0.0000000000000000E+00    0.0000000000000000E+00    0.0000000000000000E+00    0.0000000000000000E+00
 -0.4286   0.2754    0.1529679013327864E-01    0.0000000000000000E+00    0.0000000000000000E+00    0.1965665330184337E+00   -0.5432562180488961E+01    0.0000000000000000E+00    0.0000000000000000E+00    0.0000000000000000E+00    0.0000000000000000E+00    0.0000000000000000E+00
 -0.4405   0.2454    0.1168824794559797E-01    0.0000000000000000E+00    0.0000000000000000E+00    0.2023455262476452E+00   -0.6378142224158823E+01    0.0000000000000000E+00    0.0000000000000000E+00    0.0000000000000000E+00    0.0000000000000000E+00    0.0000000000000000E+00
 -0.4526   0.2151    0.9450400142243312E-02    0.0000000000000000E+00    0.0000000000000000E+00    0.2087687597352674E+00   -0.7317670250496923E+01    0.0000000000000000E+00    0.0000000000000000E+00    0.0000000000000000E+00    0.0000000000000000E+00    0.0000000000000000E+00
 -0.4646   0.1847    0.8822031715058349E-02    0.0000000000000000E+00    0.0000000000000000E+00    0.2159593082197682E+00   -0.8210325614423638E+01    0.0000000000000000E+00    0.0000000000000000E+00    0.0000000000000000E+00    0.0000000000000000E+00    0.0000000000000000E+00
 -0.4767   0.1543    0.9953708245904649E-02    0.0000000000000000E+00    0.0000000000000000E+00    0.2239884486831621E+00   -0.9014094176740155E+01    0.0000000000000000E+00    0.0000000000000000E+00    0.0000000000000000E+00    0.0000000000000000E+00    0.0000000000000000E+00
 -0.4887   0.1241    0.1288333217550694E-01    0.0000000000000000E+00    0.0000000000000000E+00    0.2329040967422483E+00   -0.9686811216684056E+01    0.0000000000000000E+00    0.0000000000000000E+00    0.0000000000000000E+00    0.0000000000000000E+00    0.0000000000000000E+00
 -0.5007   0.0941    0.1751543566586163E-01    0.0000000000000000E+00    0.0000000000000000E+00    0.2427395635627093E+00   -0.1018685968248758E+02    0.0000000000000000E+00    0.0000000000000000E+00    0.0000000000000000E+00    0.0000000000000000E+00    0.0000000000000000E+00
 -0.5124   0.0645    0.2360503741350416E-01    0.0000000000000000E+00    0.0000000000000000E+00    0.2535140269386131E+00   -0.1047451444507224E+02    0.0000000000000000E+00    0.0000000000000000E+00    0.0000000000000000E+00    0.0000000000000000E+00    0.0000000000000000E+00
 -0.5240   0.0354    0.3075036638708129E-01    0.0000000000000000E+00    0.0000000000000000E+00    0.2652299628175212E+00   -0.1051497363625332E+02    0.0000000000000000E+00    0.0000000000000000E+00    0.0000000000000000E+00    0.0000000000000000E+00    0.0000000000000000E+00
 -0.5353   0.0069    0.3840264222120543E-01    0.0000000000000000E+00    0.0000000000000000E+00    0.2778697431895324E+00   -0.1028355192161981E+02    0.0000000000000000E+00    0.0000000000000000E+00    0.0000000000000000E+00    0.0000000000000000E+00    0.0000000000000000E+00
 -0.5463  -0.0208    0.4590290518227418E-01    0.0000000000000000E+00    0.0000000000000000E+00    0.2913925368653824E+00   -0.9772495889628868E+01    0.0000000000000000E+00    0.0000000000000000E+00    0.0000000000000000E+00    0.0000000000000000E+00    0.0000000000000000E+00
 -0.5570  -0.0476    0.5255159173819934E-01    0.0000000000000000E+00    0.0000000000000000E+00    0.3057322919393800E+00   -0.8997552031790423E+01    0.0000000000000000E+00    0.0000000000000000E+00    0.0000000000000000E+00    0.0000000000000000E+00    0.0000000000000000E+00
 -0.5673  -0.0734    0.5770538154287973E-01    0.0000000000000000E+00    0.0000000000000000E+00    0.3207972353473202E+00   -0.8001500126243684E+01    0.0000000000000000E+00    0.0000000000000000E+00    0.0000000000000000E+00    0.0000000000000000E+00    0.0000000000000000E+00
 -0.5771  -0.0981    0.6088091613292101E-01    0.0000000000000000E+00    0.0000000000000000E+00    0.3364707250781824E+00   -0.6851998623414763E+01    0.0000000000000000E+00    0.0000000000000000E+00    0.0000000000000000E+00    0.0000000000000000E+00    0.0000000000000000E+00
 -0.5864  -0.1216    0.6183496309776347E-01    0.0000000000000000E+00    0.0000000000000000E+00    0.3526124929552925E+00   -0.5632870987884659E+01    0.0000000000000000E+00    0.0000000000000000E+00    0.0000000000000000E+00    0.0000000000000000E+00    0.0000000000000000E+00
 -0.5952  -0.1438    0.6059398779145796E-01    0.0000000000000000E+00    0.0000000000000000E+00    0.3690586927789414E+00   -0.4430669710387846E+01    0.0000000000000000E+00    0.0000000000000000E+00    0.0000000000000000E+00    0.0000000000000000E+00    0.0000000000000000E+00
 -0.6035  -0.1646    0.5742405404877499E-01    0.0000000000000000E+00    0.0000000000000000E+00    0.3856193242775835E+00   -0.3320683216474433E+01    0.0000000000000000E+00    0.0000000000000000E+00    0.0000000000000000E+00    0.0000000000000000E+00    0.0000000000000000E+00
 -0.6112  -0.1839    0.5275535562953065E-01    0.0000000000000000E+00    0.0000000000000000E+00    0.4020730428677694E+00   -0.2356786601381744E+01    0.0000000000000000E+00    0.0000000000000000E+00    0.0000000000000000E+00    0.0000000000000000E+00    0.0000000000000000E+00
 -0.6182  -0.2016    0.4709062436745495E-01    0.0000000000000000E+00    0.0000000000000000E+00    0.4181619391419714E+00   -0.1567753059890024E+01    0.0000000000000000E+00    0.0000000000000000E+00    0.0000000000000000E+00    0.0000000000000000E+00    0.0000000000000000E+00
 -0.6246  -0.2177    0.4092640220655637E-01    0.0000000000000000E+00    0.0000000000000000E+00    0.4335913191283505E+00   -0.9596783147773421E+00    0.0000000000000000E+00    0.0000000000000000E+00    0.0000000000000000E+00    0.0000000000000000E+00    0.0000000000000000E+00
 -0.6303  -0.2320    0.3470343473781221E-01    0.0000000000000000E+00    0.0000000000000000E+00    0.4480397725304411E+00   -0.5220965158279720E+00    0.0000000000000000E+00    0.0000000000000000E+00    0.0000000000000000E+00    0.0000000000000000E+00    0.0000000000000000E+00
 -0.6353  -0.2446    0.2878725963165188E-01    0.0000000000000000E+00    0.0000000000000000E+00    0.4611814259167140E+00   -0.2344179923732060E+00    0.0000000000000000E+00    0.0000000000000000E+00    0.0000000000000000E+00    0.0000000000000000E+00    0.0000000000000000E+00
 -0.6395  -0.2553    0.2346847499055439E-01    0.0000000000000000E+00    0.0000000000000000E+00    0.4727161129579157E+00   -0.7033622004763210E-01    0.0000000000000000E+00    0.0000000000000000E+00    0.0000000000000000E+00    0.0000000000000000E+00    0.0000000000000000E+00
 -0.6430  -0.2641    0.1896815517294947E-01    0.0000000000000000E+00    0.0000000000000000E+00    0.4823977206738300E+00    0.8812409928627858E-03    0.0000000000000000E+00    0.0000000000000000E+00    0.0000000000000000E+00    0.0000000000000000E+00    0.0000000000000000E+00
 -0.6458  -0.2710    0.1543595976236877E-01    0.0000000000000000E+00    0.0000000000000000E+00    0.4900501866256224E+00    0.1399129482871209E-01    0.0000000000000000E+00    0.0000000000000000E+00    0.0000000000000000E+00    0.0000000000000000E+00    0.0000000000000000E+00
 -0.6478  -0.2759    0.1293974649796888E-01    0.0000000000000000E+00    0.0000000000000000E+00    0.4955659287333353E+00    0.5163098656367707E-02    0.0000000000000000E+00    0.0000000000000000E+00    0.0000000000000000E+00    0.0000000000000000E+00    0.0000000000000000E+00
 -0.6489  -0.2789    0.1145991963147299E-01    0.0000000000000000E+00    0.0000000000000000E+00    0.4988900595078494E+00   -0.6733656233090135E-04    0.0000000000000000E+00    0.0000000000000000E+00    0.0000000000000000E+00    0.0000000000000000E+00    0.0000000000000000E+00
 -0.6493  -0.2799    0.1096627456803315E-01    0.0000000000000000E+00    0.0000000000000000E+00    0.5000000000000000E+00    0.0000000000000000E+00    0.0000000000000000E+00    0.0000000000000000E+00    0.0000000000000000E+00    0.0000000000000000E+00    0.0000000000000000E+00
 -0.2789   0.6489    0.2546765591513173E-01    0.0000000000000000E+00    0.0000000000000000E+00   -0.5000000000000000E+00    0.2549656389226377E-03    0.0000000000000000E+00    0.0000000000000000E+00    0.0000000000000000E+00    0.0000000000000000E+00    0.0000000000000000E+00
 -0.2793   0.6480    0.2596117365544820E-01    0.6806960034129879E-07   -0.6800291763737895E-07   -0.4952500493715782E+00   -0.6211603696779692E-03   -0.3570878569730722E-10    0.9915151718328102E-09    0.4985973656515541E-12    0.5240519389965170E-12   -0.1104436095529515E-10
 -0.2805   0.6450    0.2740081513549170E-01    0.5755837592569492E-05   -0.1803096735505685E-05   -0.4810231946362494E+00   -0.6698287304753569E-02   -0.2874621544992720E-08    0.9951349813630550E-09    0.9761015780374027E-12    0.7286497794023461E-12   -0.4401468252368534E-10
 -0.2825   0.6400    0.2971017726933436E-01    0.3462169597617780E-04   -0.3932775380342432E-05   -0.4574046491032964E+00   -0.3217430662405828E-01   -0.1864222158146527E-07    0.9990906131920885E-09    0.8990143698928144E-12    0.7350994812860279E-12   -0.9846161906634787E-10
 -0.2852   0.6331    0.3281331779155442E-01    0.9858954136894987E-04   -0.5179802084486944E-05   -0.4245932285766439E+00   -0.8907625153524870E-01   -0.5335350512574161E-07    0.1002753461862294E-08    0.3361026734705064E-12    0.7863501516602867E-12   -0.1745756629534245E-09
 -0.2887   0.6243    0.3659039809403888E-01    0.1931381013911821E-03   -0.5405514674723014E-05   -0.3829940491283044E+00   -0.1743199759797732E+00   -0.1045621036554876E-06    0.1005966837608341E-08   -0.7903261378672255E-12    0.7896149012420750E-12   -0.2714403146697464E-09
 -0.2930   0.6136    0.4083881207857394E-01    0.3019476406248368E-03   -0.4676800383155630E-05   -0.3333505669170992E+00   -0.2735964609833682E+00   -0.1632299516606916E-06    0.1007984111109361E-08   -0.2364802798027199E-11    0.7999503837119448E-12   -0.3863578831864167E-09
 -0.2980   0.6010    0.4526578240244229E-01    0.4038938832842919E-03   -0.3403040287281333E-05   -0.2768906248135429E+00   -0.3677137818684288E+00   -0.2180224484063104E-06    0.1008489020591641E-08   -0.4136024855938558E-11    0.7734472784459712E-12   -0.5159522115105730E-09
 -0.3037   0.5867    0.4950023149229229E-01    0.4806083539294639E-03   -0.1952296753036630E-05   -0.2154335077796589E+00   -0.4398361017883007E+00   -0.2589882675939222E-06    0.1007468845327930E-08   -0.5798549140845211E-11    0.7618402436682103E-12   -0.6508718841669037E-09
 -0.3101   0.5706    0.5312776295394046E-01    0.5242341867899674E-03   -0.8130206830347821E-06   -0.1513921889378439E+00   -0.4825970022837976E+00   -0.2819671787603660E-06    0.1005368505243784E-08   -0.7070989627155910E-11    0.7225227360851960E-12   -0.7791367412357530E-09
 -0.3171   0.5529    0.5574658436949823E-01    0.5436495136703574E-03   -0.3639848820461830E-06   -0.8762450453665584E-01   -0.5039405970540128E+00   -0.2917464703890335E-06    0.1002750812397445E-08   -0.7752961467266672E-11    0.6771336963362629E-12   -0.8833193343438239E-09
 -0.3248   0.5336    0.5703804819703685E-01    0.5654328993844037E-03   -0.8400754840849182E-06   -0.2713696694719143E-01   -0.5280271062833748E+00   -0.3027004074824675E-06    0.1000164301205586E-08   -0.7759743368696004E-11    0.6404130697967858E-12   -0.9412627482996427E-09
 -0.3330   0.5129    0.5682756966135168E-01    0.6270175010148788E-03   -0.2152323692742759E-05    0.2730356968973757E-01   -0.5890940802937011E+00   -0.3349881276700050E-06    0.9976486173637888E-09   -0.7139473040540523E-11    0.6378318012645323E-12   -0.9264436162670364E-09
 -0.3419   0.4907    0.5510935220320223E-01    0.7646186589293081E-03   -0.4011200441005794E-05    0.7357133066514482E-01   -0.7204243267294406E+00   -0.4081093750069067E-06    0.9943228948539051E-09   -0.6066425140005549E-11    0.5608395692302537E-12   -0.8108383547922315E-09
 -0.3512   0.4672    0.5202324919092721E-01    0.1003356582521503E-02   -0.6055678738533041E-05    0.1105152009229955E+00   -0.9452787969672807E+00   -0.5355431280940293E-06    0.9880446634469298E-09   -0.4747265081039842E-11    0.5060153684954827E-12   -0.5716832215951761E-09
 -0.3610   0.4424    0.4780314179479291E-01    0.1355478980580433E-02   -0.8074391690550751E-05    0.1381377463396817E+00   -0.1275115682184999E+01   -0.7238467014793431E-06    0.9757593309733803E-09   -0.3341556198410700E-11    0.4151540222707695E-12   -0.2016467270937738E-09
 -0.3713   0.4166    0.4272810620076038E-01    0.1825114129908578E-02   -0.9989900234601198E-05    0.1575335052492126E+00   -0.1713825192862659E+01   -0.9752228744077275E-06    0.9540885234637919E-09   -0.1942043748037747E-11    0.3505043477680658E-12    0.2815795097088625E-09
 -0.3819   0.3898    0.3709531179154583E-01    0.2413011609760351E-02   -0.1180442767178074E-04    0.1705585416647694E+00   -0.2262009553918076E+01   -0.1290090521345593E-05    0.9204065010148810E-09   -0.5857814233678482E-12    0.2407657406777730E-12    0.8352195601801782E-09
 -0.3930   0.3621    0.3121198191083564E-01    0.3117036355420481E-02   -0.1347513306848007E-04    0.1793276034974964E+00   -0.2917453233866296E+01   -0.1667351791866449E-05    0.8735365243650595E-09    0.7080031005912701E-12    0.1388750225927993E-12    0.1400779783833350E-08
 -0.4043   0.3337    0.2539659126222699E-01    0.3929421158863818E-02   -0.1491684206043816E-04    0.1857371374336110E+00   -0.3672633571035766E+01   -0.2102895197510461E-05    0.8140083745944438E-09    0.1951449418724494E-11    0.2096933737760764E-13    0.1922957371461309E-08
 -0.4158   0.3046    0.1998011798310721E-01    0.4833873191409085E-02   -0.1599966958930133E-04    0.1911903557106772E+00   -0.4512104929737193E+01   -0.2588049148012955E-05    0.7439014196308769E-09    0.3228514677822147E-11   -0.8704148513061227E-13    0.2362334302621286E-08
 -0.4276   0.2750    0.1530110264299754E-01    0.5804551763730982E-02   -0.1660852994494092E-04    0.1965662875471687E+00   -0.5411613458803851E+01   -0.3108996293980777E-05    0.6662627116682529E-09    0.4679111265115665E-11   -0.1932204396482007E-12    0.2702065413865556E-08
 -0.4395   0.2450    0.1169042458117589E-01    0.6807198468776436E-02   -0.1664741155823743E-04    0.2023451343654105E+00   -0.6339189407003702E+01   -0.3647402524965115E-05    0.5846970685396968E-09    0.6488101722545991E-11   -0.2896433093368955E-12    0.2943327030453108E-08
 -0.4516   0.2147    0.9447110869189507E-02    0.7801654856733954E-02   -0.1606586325898225E-04    0.2087682785868669E+00   -0.7257517564056709E+01   -0.4181724080499428E-05    0.5031976745006883E-09    0.8777173432505947E-11   -0.3663180869750704E-12    0.3097191639440944E-08
 -0.4636   0.1843    0.8809756569149247E-02    0.8744592550564740E-02   -0.1483140325340036E-04    0.2159587554275543E+00   -0.8126468925076233E+01   -0.4688714938725718E-05    0.4256602223473571E-09    0.1156769124932566E-10   -0.4027195243949677E-12    0.3177981655611006E-08
 -0.4757   0.1539    0.9928809758703349E-02    0.9591550956743359E-02   -0.1292817388133471E-04    0.2239878258209971E+00   -0.8904999086055142E+01   -0.5144470214407792E-05    0.3557071304172155E-09    0.1467737043014949E-10   -0.4335282133283158E-12    0.3199168687774423E-08
 -0.4877   0.1237    0.1284203189523990E-01    0.1029804724015930E-01   -0.1032833920549986E-04    0.2329034002525066E+00   -0.9552164944041971E+01   -0.5525078365403227E-05    0.2962645753723514E-09    0.1777955560555711E-10   -0.4248754126301435E-12    0.3172099645454285E-08
 -0.4997   0.0937    0.1745381308255865E-01    0.1082032634672662E-01   -0.7007099104804493E-05    0.2427387892160336E+00   -0.1002784422749325E+02   -0.5806958699368014E-05    0.2491120469627628E-09    0.2042921387612751E-10   -0.3240289980777078E-12    0.3105769078547149E-08
 -0.5114   0.0641    0.2351910891983551E-01    0.1111680070713614E-01   -0.2950537129063858E-05    0.2535131716972648E+00   -0.1029406222320675E+02   -0.5967702610168134E-05    0.2142910441108037E-09    0.2206862470544024E-10   -0.2263276371872180E-12    0.3007292272844131E-08
 -0.5230   0.0350    0.3063638042201754E-01    0.1115125817963259E-01    0.1793721021957782E-05    0.2652290257106525E+00   -0.1031797526113395E+02   -0.5987718938077174E-05    0.1899773003841143E-09    0.2225397643940141E-10   -0.7132489043826240E-13    0.2882461538553094E-08
 -0.5343   0.0065    0.3825757499086622E-01    0.1089831994497540E-01    0.7081425925815315E-05    0.2778687255951446E+00   -0.1007684951954501E+02   -0.5853260575074086E-05    0.1723948848258994E-09    0.2063293980114622E-10    0.8663902928418565E-13    0.2736094250471721E-08
 -0.5453  -0.0212    0.4572515988193352E-01    0.1035055155719057E-01    0.1262617909505088E-04    0.2913914421277960E+00   -0.9564558328083562E+01   -0.5560167195702374E-05    0.1565605874109810E-09    0.1717959108304967E-10    0.2604860771526774E-12    0.2571956973784761E-08
 -0.5560  -0.0480    0.5234166594804840E-01    0.9525260938909342E-02    0.1800842131892603E-04    0.3057311242185142E+00   -0.8797682423671379E+01   -0.5117653007236318E-05    0.1372575803015863E-09    0.1214950362538048E-10    0.4466843561701239E-12    0.2393293970989752E-08
 -0.5663  -0.0738    0.5746631863899923E-01    0.8468071287275612E-02    0.2271797151121856E-04    0.3207959978581408E+00   -0.7818687063836029E+01   -0.4550136594220984E-05    0.1104088834247285E-09    0.6190326029553717E-11    0.5639239075705405E-12    0.2203328389530079E-08
 -0.5761  -0.0985    0.6061821637335289E-01    0.7250540630267120E-02    0.2626345295620516E-04    0.3364694183638397E+00   -0.6693587954411084E+01   -0.3896114162317638E-05    0.7422326642192445E-10    0.1135203042679223E-12    0.6643297023600780E-12    0.2004894233270660E-08
 -0.5854  -0.1220    0.6155595202508257E-01    0.5960958390274139E-02    0.2828500898324270E-04    0.3526111143531934E+00   -0.5503517904443075E+01   -0.3203059563382038E-05    0.2969703649657873E-10   -0.5239808587020889E-11    0.7413791802690639E-12    0.1800662586051716E-08
 -0.5942  -0.1442    0.6030668562955298E-01    0.4690277434559157E-02    0.2865216902803373E-04    0.3690572384567980E+00   -0.4331826493219978E+01   -0.2520009358080850E-05   -0.1985170361429311E-10   -0.9179379478752026E-11    0.7416567360252202E-12    0.1593726737386669E-08
 -0.6025  -0.1650    0.5713600754125080E-01    0.3517513342298891E-02    0.2747816689553522E-04    0.3856177947193150E+00   -0.3250860004813449E+01   -0.1889484248924731E-05   -0.6984908484941599E-10   -0.1138070193640317E-10    0.7204514762548797E-12    0.1386519716747858E-08
 -0.6102  -0.1843    0.5247268300669779E-01    0.2499187644825360E-02    0.2506842953040289E-04    0.4020714512404184E+00   -0.2312314124354544E+01   -0.1342008783374856E-05   -0.1159009763163077E-09   -0.1187104581301668E-10    0.7532863222081687E-12    0.1182992193787813E-08
 -0.6172  -0.2020    0.4681766852978372E-01    0.1665496346127901E-02    0.2180849876064578E-04    0.4181603198438788E+00   -0.1543854506119541E+01   -0.8937778938843838E-06   -0.1547705991145065E-09   -0.1096675528167168E-10    0.7141648383779398E-12    0.9854444534690421E-09
 -0.6236  -0.2181    0.4066582449311472E-01    0.1022848524739078E-02    0.1805928781930510E-04    0.4335897320308410E+00   -0.9513266803128210E+00   -0.5483336532569202E-06   -0.1848596345443987E-09   -0.9144879298261799E-11    0.6843414723789465E-12    0.7980921461897550E-09
 -0.6293  -0.2324    0.3445675759094113E-01    0.5602132370632829E-03    0.1408325753337960E-04    0.4480382984590943E+00   -0.5246316428112511E+00   -0.2996316653849298E-06   -0.2060905265888202E-09   -0.6928785670212712E-11    0.6730171975277699E-12    0.6236307442675226E-09
 -0.6343  -0.2450    0.2855526866938512E-01    0.2558089148192013E-03    0.1004678573176511E-04    0.4611801516816595E+00   -0.2436136809112835E+00   -0.1361011561203107E-06   -0.2196112493246805E-09   -0.4768380135189432E-11    0.6805805918830288E-12    0.4655019928551107E-09
 -0.6385  -0.2557    0.2325138363570477E-01    0.8163236483539815E-04    0.6093213049550269E-05    0.4727151091207023E+00   -0.8233661413439058E-01   -0.4255563219685743E-07   -0.2271904331330177E-09   -0.3002913889771364E-11    0.6692701948196600E-12    0.3268497642677781E-09
 -0.6421  -0.2645    0.1876484146100304E-01    0.4888752459938507E-05    0.2509520096656427E-05    0.4823970199730904E+00   -0.1014688416344709E-01   -0.1638898643602273E-08   -0.2310789302961691E-09   -0.1820980866096278E-11    0.7083656577977493E-12    0.2108826975891209E-09
 -0.6448  -0.2714    0.1524254001984062E-01   -0.1144103991242043E-04   -0.1664400530062482E-06    0.4900497726964114E+00    0.7188842832749327E-02    0.6808233181905757E-08   -0.2333353733754290E-09   -0.1219099474147889E-11    0.7067226578255648E-12    0.1192895691080886E-09
 -0.6468  -0.2763    0.1274778466719189E-01   -0.4820513698126392E-05   -0.1171022363183756E-05    0.4955657411420913E+00    0.3911868179163937E-02    0.2631307395163089E-08   -0.2361444147863656E-09   -0.9859730219774487E-12    0.7649068010928683E-12    0.5291614954376633E-10
 -0.6480  -0.2793    0.1126560867677410E-01   -0.1902762292264012E-06   -0.1903464593269809E-06    0.4988900124037471E+00    0.6807359558570660E-03    0.1621932261398455E-09   -0.2395888261006937E-09   -0.5285055704705444E-12    0.5383302310868476E-12    0.1364093392278512E-10
 -0.6483  -0.2803    0.1077174392642753E-01    0.0000000000000000E+00    0.0000000000000000E+00    0.5000000000000000E+00   -0.6695937599157008E-04    0.0000000000000000E+00    0.0000000000000000E+00    0.0000000000000000E+00    0.0000000000000000E+00    0.0000000000000000E+00
 -0.2759   0.6478    0.2607627685133521E-01    0.0000000000000000E+00    0.0000000000000000E+00   -0.5000000000000000E+00   -0.4418877423658407E-02    0.0000000000000000E+00    0.0000000000000000E+00    0.0000000000000000E+00    0.0000000000000000E+00    0.0000000000000000E+00
 -0.2763   0.6468    0.2656300761132062E-01    0.1801867922021346E-05   -0.5753777480332812E-05   -0.4952480767522317E+00   -0.6696961696971052E-02   -0.2873331718866860E-08    0.9947224216197426E-09    0.7252309917969019E-12    0.9466646216926833E-12   -0.1101654238753330E-10
 -0.2775   0.6438    0.2799420230642226E-01    0.2757110381280968E-04   -0.2757539035706248E-04   -0.4810152399732985E+00   -0.1350436024365675E-01   -0.5584776384157447E-07    0.9962140071206882E-09    0.2153561183548813E-11    0.2376527794001326E-11   -0.4398002014655011E-10
 -0.2795   0.6388    0.3029762083350246E-01    0.1305839977554539E-03   -0.5692499322292391E-04   -0.4573863150453375E+00   -0.3172272577845182E-01   -0.2873548721256901E-06    0.9990597550635361E-09    0.2470307812474370E-11    0.3147659216606868E-11   -0.9828227728186922E-10
 -0.2822   0.6319    0.3338065456755709E-01    0.3561046915124387E-03   -0.7692878136067608E-04   -0.4245594022614919E+00   -0.7354312395978921E-01   -0.7969478494000241E-06    0.1002367959468398E-08    0.7497179960180844E-12    0.3632229933492326E-11   -0.1744280241078311E-09
 -0.2858   0.6231    0.3711456986418819E-01    0.6988951802653717E-03   -0.8153315203407732E-04   -0.3829391407338010E+00   -0.1418103828765218E+00   -0.1562581905129144E-05    0.1005398229947385E-08   -0.3148793725760157E-11    0.3903141698735624E-11   -0.2710922389348447E-09
 -0.2900   0.6124    0.4129799594493645E-01    0.1105321410625847E-02   -0.7221193428373943E-04   -0.3332694699960989E+00   -0.2275168825270027E+00   -0.2458340608402566E-05    0.1007490840754244E-08   -0.8805206563877732E-11    0.3975167417458181E-11   -0.3864842890166642E-09
 -0.2950   0.5998    0.4564327135008726E-01    0.1498956022070436E-02   -0.5381261085866232E-04   -0.2767801513771732E+00   -0.3150821694173856E+00   -0.3313209784330699E-05    0.1008229479071421E-08   -0.1527738352491426E-10    0.3842507909079806E-11   -0.5156301635667049E-09
 -0.3007   0.5855    0.4978716663570093E-01    0.1810584454322152E-02   -0.3255476188417340E-04   -0.2152938091456477E+00   -0.3895719627585040E+00   -0.3975026741068171E-05    0.1007586436160834E-08   -0.2140072841161356E-10    0.3593327024820070E-11   -0.6505864458272725E-09