 title="result"
 variables="x","y","P","u","v","t","omega","psi","RES1","RES2","RES3","RES4"
zone,j= 49,i= 49,f=point
 -0.2039   0.6771    0.2453627158103414E-01    0.0000000000000000E+00    0.0000000000000000E+00   -0.5000000000000000E+00    0.0000000000000000E+00    0.0000000000000000E+00    0.0000000000000000E+00    0.0000000000000000E+00    0.0000000000000000E+00    0.0000000000000000E+00
 -0.2044   0.6761    0.2500541498102295E-01    0.0000000000000000E+00    0.0000000000000000E+00   -0.4949586607203681E+00    0.4858162370791236E-03    0.0000000000000000E+00    0.0000000000000000E+00    0.0000000000000000E+00    0.0000000000000000E+00    0.0000000000000000E+00
 -0.2059   0.6733    0.2635548875460728E-01    0.0000000000000000E+00    0.0000000000000000E+00   -0.4798593639256460E+00   -0.4783824540704088E-02    0.0000000000000000E+00    0.0000000000000000E+00    0.0000000000000000E+00    0.0000000000000000E+00    0.0000000000000000E+00
 -0.2084   0.6686    0.2850595302179358E-01    0.0000000000000000E+00    0.0000000000000000E+00   -0.4547956003720591E+00   -0.4543261862870621E-01    0.0000000000000000E+00    0.0000000000000000E+00    0.0000000000000000E+00    0.0000000000000000E+00    0.0000000000000000E+00
 -0.2119   0.6621    0.3142588637693260E-01    0.0000000000000000E+00    0.0000000000000000E+00   -0.4199926131670579E+00   -0.1431884956701185E+00    0.0000000000000000E+00    0.0000000000000000E+00    0.0000000000000000E+00    0.0000000000000000E+00    0.0000000000000000E+00
 -0.2164   0.6537    0.3505739122414242E-01    0.0000000000000000E+00    0.0000000000000000E+00   -0.3759263144681808E+00   -0.2933945589756710E+00    0.0000000000000000E+00    0.0000000000000000E+00    0.0000000000000000E+00    0.0000000000000000E+00    0.0000000000000000E+00
 -0.2219   0.6435    0.3924845587180040E-01    0.0000000000000000E+00    0.0000000000000000E+00   -0.3234970048691792E+00   -0.4710785827828933E+00    0.0000000000000000E+00    0.0000000000000000E+00    0.0000000000000000E+00    0.0000000000000000E+00    0.0000000000000000E+00
 -0.2283   0.6317    0.4373092651925636E-01    0.0000000000000000E+00    0.0000000000000000E+00   -0.2642142486408045E+00   -0.6408675210914869E+00    0.0000000000000000E+00    0.0000000000000000E+00    0.0000000000000000E+00    0.0000000000000000E+00    0.0000000000000000E+00
 -0.2356   0.6181    0.4812526836953554E-01    0.0000000000000000E+00    0.0000000000000000E+00   -0.2003022125613352E+00   -0.7691864368756511E+00    0.0000000000000000E+00    0.0000000000000000E+00    0.0000000000000000E+00    0.0000000000000000E+00    0.0000000000000000E+00
 -0.2438   0.6028    0.5198257937419516E-01    0.0000000000000000E+00    0.0000000000000000E+00   -0.1346261107289694E+00   -0.8364822217100638E+00    0.0000000000000000E+00    0.0000000000000000E+00    0.0000000000000000E+00    0.0000000000000000E+00    0.0000000000000000E+00
 -0.2528   0.5861    0.5485470893773746E-01    0.0000000000000000E+00    0.0000000000000000E+00   -0.7040042089953266E-01   -0.8467579726045448E+00    0.0000000000000000E+00    0.0000000000000000E+00    0.0000000000000000E+00    0.0000000000000000E+00    0.0000000000000000E+00
 -0.2626   0.5678    0.5638408776244667E-01    0.0000000000000000E+00    0.0000000000000000E+00   -0.1074473281304929E-01   -0.8295265895458245E+00    0.0000000000000000E+00    0.0000000000000000E+00    0.0000000000000000E+00    0.0000000000000000E+00    0.0000000000000000E+00
 -0.2732   0.5481    0.5637969810128485E-01    0.0000000000000000E+00    0.0000000000000000E+00    0.4177333044758567E-01   -0.8308773818967882E+00    0.0000000000000000E+00    0.0000000000000000E+00    0.0000000000000000E+00    0.0000000000000000E+00    0.0000000000000000E+00
 -0.2845   0.5270    0.5484526268347343E-01    0.0000000000000000E+00    0.0000000000000000E+00    0.8548210329135336E-01   -0.8970146068812442E+00    0.0000000000000000E+00    0.0000000000000000E+00    0.0000000000000000E+00    0.0000000000000000E+00    0.0000000000000000E+00
 -0.2964   0.5047    0.5194452370379610E-01    0.0000000000000000E+00    0.0000000000000000E+00    0.1197791792501024E+00   -0.1060127803512330E+01    0.0000000000000000E+00    0.0000000000000000E+00    0.0000000000000000E+00    0.0000000000000000E+00    0.0000000000000000E+00
 -0.3090   0.4813    0.4793204280379876E-01    0.0000000000000000E+00    0.0000000000000000E+00    0.1451247588213307E+00   -0.1334932739905477E+01    0.0000000000000000E+00    0.0000000000000000E+00    0.0000000000000000E+00    0.0000000000000000E+00    0.0000000000000000E+00
 -0.3222   0.4568    0.4309254861888333E-01    0.0000000000000000E+00    0.0000000000000000E+00    0.1628551451905127E+00   -0.1724542706547531E+01    0.0000000000000000E+00    0.0000000000000000E+00    0.0000000000000000E+00    0.0000000000000000E+00    0.0000000000000000E+00
 -0.3358   0.4314    0.3771315120983126E-01    0.0000000000000000E+00    0.0000000000000000E+00    0.1748366469106248E+00   -0.2227530317017948E+01    0.0000000000000000E+00    0.0000000000000000E+00    0.0000000000000000E+00    0.0000000000000000E+00    0.0000000000000000E+00
 -0.3499   0.4052    0.3208078780513868E-01    0.0000000000000000E+00    0.0000000000000000E+00    0.1830411037888988E+00   -0.2840349020197203E+01    0.0000000000000000E+00    0.0000000000000000E+00    0.0000000000000000E+00    0.0000000000000000E+00    0.0000000000000000E+00
 -0.3644   0.3782    0.2648906433130473E-01    0.0000000000000000E+00    0.0000000000000000E+00    0.1891783570397332E+00   -0.3555666582714539E+01    0.0000000000000000E+00    0.0000000000000000E+00    0.0000000000000000E+00    0.0000000000000000E+00    0.0000000000000000E+00
 -0.3792   0.3506    0.2124298468267532E-01    0.0000000000000000E+00    0.0000000000000000E+00    0.1944996633939128E+00   -0.4359843450838854E+01    0.0000000000000000E+00    0.0000000000000000E+00    0.0000000000000000E+00    0.0000000000000000E+00    0.0000000000000000E+00
 -0.3943   0.3225    0.1665696167613708E-01    0.0000000000000000E+00    0.0000000000000000E+00    0.1997918867683973E+00   -0.5231764010595215E+01    0.0000000000000000E+00    0.0000000000000000E+00    0.0000000000000000E+00    0.0000000000000000E+00    0.0000000000000000E+00
 -0.4096   0.2941    0.1304329550191289E-01    0.0000000000000000E+00    0.0000000000000000E+00    0.2054913729517079E+00   -0.6143401279020725E+01    0.0000000000000000E+00    0.0000000000000000E+00    0.0000000000000000E+00    0.0000000000000000E+00    0.0000000000000000E+00
 -0.4250   0.2654    0.1069259533181101E-01    0.0000000000000000E+00    0.0000000000000000E+00    0.2118226920423015E+00   -0.7061567257131402E+01    0.0000000000000000E+00    0.0000000000000000E+00    0.0000000000000000E+00    0.0000000000000000E+00    0.0000000000000000E+00
 -0.4405   0.2366    0.9849663217482709E-02    0.0000000000000000E+00    0.0000000000000000E+00    0.2189035465971455E+00   -0.7949874315779633E+01    0.0000000000000000E+00    0.0000000000000000E+00    0.0000000000000000E+00    0.0000000000000000E+00    0.0000000000000000E+00
 -0.4560   0.2078    0.1068918491877429E-01    0.0000000000000000E+00    0.0000000000000000E+00    0.2268038432271927E+00   -0.8770125036681614E+01    0.0000000000000000E+00    0.0000000000000000E+00    0.0000000000000000E+00    0.0000000000000000E+00    0.0000000000000000E+00
 -0.4714   0.1791    0.1329267375171321E-01    0.0000000000000000E+00    0.0000000000000000E+00    0.2355715780978893E+00   -0.9482822414666529E+01    0.0000000000000000E+00    0.0000000000000000E+00    0.0000000000000000E+00    0.0000000000000000E+00    0.0000000000000000E+00
 -0.4866   0.1507    0.1762660453917095E-01    0.0000000000000000E+00    0.0000000000000000E+00    0.2452410650052739E+00   -0.1004724708767089E+02    0.0000000000000000E+00    0.0000000000000000E+00    0.0000000000000000E+00    0.0000000000000000E+00    0.0000000000000000E+00
 -0.5017   0.1226    0.2352144994931486E-01    0.0000000000000000E+00    0.0000000000000000E+00    0.2558334239444867E+00   -0.1042204651189696E+02    0.0000000000000000E+00    0.0000000000000000E+00    0.0000000000000000E+00    0.0000000000000000E+00    0.0000000000000000E+00
 -0.5165   0.0950    0.3065499309528877E-01    0.0000000000000000E+00    0.0000000000000000E+00    0.2673540423652863E+00   -0.1056752502898897E+02    0.0000000000000000E+00    0.0000000000000000E+00    0.0000000000000000E+00    0.0000000000000000E+00    0.0000000000000000E+00
 -0.5310   0.0680    0.3854785973485875E-01    0.0000000000000000E+00    0.0000000000000000E+00    0.2797890463611015E+00   -0.1045043631699836E+02    0.0000000000000000E+00    0.0000000000000000E+00    0.0000000000000000E+00    0.0000000000000000E+00    0.0000000000000000E+00
 -0.5451   0.0418    0.4658329573882665E-01    0.0000000000000000E+00    0.0000000000000000E+00    0.2931018779365733E+00   -0.1005121866309289E+02    0.0000000000000000E+00    0.0000000000000000E+00    0.0000000000000000E+00    0.0000000000000000E+00    0.0000000000000000E+00
 -0.5588   0.0164    0.5406161296461121E-01    0.0000000000000000E+00    0.0000000000000000E+00    0.3072308028136183E+00   -0.9372154674841303E+01    0.0000000000000000E+00    0.0000000000000000E+00    0.0000000000000000E+00    0.0000000000000000E+00    0.0000000000000000E+00
 -0.5719  -0.0081    0.6029049714758374E-01    0.0000000000000000E+00    0.0000000000000000E+00    0.3220879233740399E+00   -0.8443615633710699E+01    0.0000000000000000E+00    0.0000000000000000E+00    0.0000000000000000E+00    0.0000000000000000E+00    0.0000000000000000E+00
 -0.5845  -0.0315    0.6469592047033071E-01    0.0000000000000000E+00    0.0000000000000000E+00    0.3375597413476042E+00   -0.7325005737447954E+01    0.0000000000000000E+00    0.0000000000000000E+00    0.0000000000000000E+00    0.0000000000000000E+00    0.0000000000000000E+00
 -0.5965  -0.0538    0.6692304675030925E-01    0.0000000000000000E+00    0.0000000000000000E+00    0.3535085012718302E+00   -0.6098345584498752E+01    0.0000000000000000E+00    0.0000000000000000E+00    0.0000000000000000E+00    0.0000000000000000E+00    0.0000000000000000E+00
 -0.6078  -0.0749    0.6689294055240919E-01    0.0000000000000000E+00    0.0000000000000000E+00    0.3697727664521620E+00   -0.4855234527382667E+01    0.0000000000000000E+00    0.0000000000000000E+00    0.0000000000000000E+00    0.0000000000000000E+00    0.0000000000000000E+00
 -0.6184  -0.0946    0.6479521384927188E-01    0.0000000000000000E+00    0.0000000000000000E+00    0.3861655576015174E+00   -0.3681119600538991E+01    0.0000000000000000E+00    0.0000000000000000E+00    0.0000000000000000E+00    0.0000000000000000E+00    0.0000000000000000E+00
 -0.6282  -0.1129    0.6102266711514637E-01    0.0000000000000000E+00    0.0000000000000000E+00    0.4024695628878704E+00   -0.2642044469525724E+01    0.0000000000000000E+00    0.0000000000000000E+00    0.0000000000000000E+00    0.0000000000000000E+00    0.0000000000000000E+00
 -0.6372  -0.1296    0.5607591705231972E-01    0.0000000000000000E+00    0.0000000000000000E+00    0.4184314913327519E+00   -0.1777874061650480E+01    0.0000000000000000E+00    0.0000000000000000E+00    0.0000000000000000E+00    0.0000000000000000E+00    0.0000000000000000E+00
 -0.6454  -0.1449    0.5047223230083588E-01    0.0000000000000000E+00    0.0000000000000000E+00    0.4337604907932807E+00   -0.1102735755453083E+01    0.0000000000000000E+00    0.0000000000000000E+00    0.0000000000000000E+00    0.0000000000000000E+00    0.0000000000000000E+00
 -0.6527  -0.1585    0.4468210013653668E-01    0.0000000000000000E+00    0.0000000000000000E+00    0.4481364847499538E+00   -0.6106429687567074E+00    0.0000000000000000E+00    0.0000000000000000E+00    0.0000000000000000E+00    0.0000000000000000E+00    0.0000000000000000E+00
 -0.6591  -0.1703    0.3909996253240582E-01    0.0000000000000000E+00    0.0000000000000000E+00    0.4612313547586472E+00   -0.2825188157542370E+00    0.0000000000000000E+00    0.0000000000000000E+00    0.0000000000000000E+00    0.0000000000000000E+00    0.0000000000000000E+00
 -0.6645  -0.1805    0.3403999285116106E-01    0.0000000000000000E+00    0.0000000000000000E+00    0.4727395007346898E+00   -0.9159447087158974E-01    0.0000000000000000E+00    0.0000000000000000E+00    0.0000000000000000E+00    0.0000000000000000E+00    0.0000000000000000E+00
 -0.6690  -0.1889    0.2974110622480020E-01    0.0000000000000000E+00    0.0000000000000000E+00    0.4824079521863703E+00   -0.5385978984813733E-02    0.0000000000000000E+00    0.0000000000000000E+00    0.0000000000000000E+00    0.0000000000000000E+00    0.0000000000000000E+00
 -0.6725  -0.1954    0.2636539211117913E-01    0.0000000000000000E+00    0.0000000000000000E+00    0.4900545218268808E+00    0.1367521591212952E-01    0.0000000000000000E+00    0.0000000000000000E+00    0.0000000000000000E+00    0.0000000000000000E+00    0.0000000000000000E+00
 -0.6751  -0.2001    0.2398691134549911E-01    0.0000000000000000E+00    0.0000000000000000E+00    0.4955676063220286E+00    0.5627368812371489E-02    0.0000000000000000E+00    0.0000000000000000E+00    0.0000000000000000E+00    0.0000000000000000E+00    0.0000000000000000E+00
 -0.6766  -0.2029    0.2258281281933605E-01    0.0000000000000000E+00    0.0000000000000000E+00    0.4988904644144820E+00   -0.4388724149606219E-04    0.0000000000000000E+00    0.0000000000000000E+00    0.0000000000000000E+00    0.0000000000000000E+00    0.0000000000000000E+00
 -0.6771  -0.2039    0.2211539850948454E-01    0.0000000000000000E+00    0.0000000000000000E+00    0.5000000000000000E+00    0.0000000000000000E+00    0.0000000000000000E+00    0.0000000000000000E+00    0.0000000000000000E+00    0.0000000000000000E+00    0.0000000000000000E+00
 -0.2029   0.6766    0.2478958729092416E-01    0.0000000000000000E+00    0.0000000000000000E+00   -0.5000000000000000E+00    0.4863155239267922E-03    0.0000000000000000E+00    0.0000000000000000E+00    0.0000000000000000E+00    0.0000000000000000E+00    0.0000000000000000E+00
 -0.2034   0.6756    0.2525745501564259E-01   -0.2030745012004975E-07    0.2060502206543257E-07   -0.4949585043199644E+00   -0.7029351051134030E-03    0.3058086960718904E-10    0.2830021821271025E-09    0.7720336956534846E-12    0.7626330122967317E-12   -0.1448238967985405E-10
 -0.2050   0.6728    0.2660993131835488E-01    0.7072606609549987E-05   -0.2397544037675076E-05   -0.4798587280118382E+00   -0.8959496497204312E-02   -0.3419203711587817E-08    0.2882543006371696E-09    0.1384180964292270E-11    0.1085012288348786E-11   -0.5796900372917468E-10
 -0.2075   0.6681    0.2876499069676059E-01    0.4908973670026015E-04   -0.5934163111351317E-05   -0.4547941025857903E+00   -0.4656254989360512E-01   -0.2625611044603151E-07    0.2934732960119257E-09    0.1250503227443606E-11    0.1071500527194402E-11   -0.1302414530390816E-09
 -0.2110   0.6616    0.3167956180599762E-01    0.1492803406140802E-03   -0.8318881856647516E-05   -0.4199897706898018E+00   -0.1359378168294434E+00   -0.8059617405663927E-07    0.2973884142415395E-09    0.6002975894148221E-12    0.1125100013155134E-11   -0.2312832321493818E-09
 -0.2155   0.6532    0.3529215284777063E-01    0.3047722543708130E-03   -0.9065257399810857E-05   -0.3759215931779508E+00   -0.2761296089727910E+00   -0.1647930317088913E-06    0.3000849915779646E-09   -0.4350617088810793E-12    0.1130470717036758E-11   -0.3605838509723736E-09
 -0.2209   0.6430    0.3945228103201859E-01    0.4903604622487057E-03   -0.8110627784669358E-05   -0.3234899574490235E+00   -0.4451337969609144E+00   -0.2649322706420421E-06    0.3012203004387759E-09   -0.1600289345482508E-11    0.1125211035457596E-11   -0.5173469361241523E-09
 -0.2273   0.6311    0.4389462227903129E-01    0.6693160446419749E-03   -0.6058938366905383E-05   -0.2642046935090773E+00   -0.6096464964078603E+00   -0.3612350226239730E-06    0.3012612225655742E-09   -0.2568806278802072E-11    0.1102850449852255E-11   -0.6993347012596018E-09
 -0.2346   0.6176    0.4824411604950623E-01    0.8063097577928686E-03   -0.3492831651139425E-05   -0.2002903716388246E+00   -0.7372607366461558E+00   -0.4346228151310465E-06    0.3010028597899561E-09   -0.3060787734376902E-11    0.1069016403176803E-11   -0.9012240953509831E-09
 -0.2428   0.6023    0.5205685167993422E-01    0.8804888811375728E-03   -0.1200280499254564E-05   -0.1346126229770361E+00   -0.8085480759721636E+00   -0.4739581863710620E-06    0.3017924937731564E-09   -0.2838701496088447E-11    0.1025729848280754E-11   -0.1116670894640848E-08
 -0.2518   0.5855    0.5488956124145386E-01    0.8956367586187659E-03    0.2116746918737846E-06   -0.7038620835147055E-01   -0.8265809861531805E+00   -0.4813278686894885E-06    0.3052973920219561E-09   -0.1757781420419491E-11    0.1020794532886546E-11   -0.1335065183405426E-08
 -0.2616   0.5673    0.5638804731903143E-01    0.8823693865160067E-03    0.3395688094331933E-06   -0.1073078526524496E-01   -0.8190283807643512E+00   -0.4733102794283467E-06    0.3135117264537954E-09    0.2217531713810672E-12    0.9556811722197245E-12   -0.1540520294662784E-08
 -0.2722   0.5476    0.5636237288792405E-01    0.8888953040853820E-03   -0.7357323830320427E-06    0.4178614478630083E-01   -0.8298674238704282E+00   -0.4759002083850465E-06    0.3282906075891684E-09    0.2949759360382220E-11    0.8766321002440236E-12   -0.1709200614374851E-08
 -0.2835   0.5265    0.5481510954209638E-01    0.9638174289250027E-03   -0.2633577370971018E-05    0.8549314056877869E-01   -0.9036893077111853E+00   -0.5152715958431809E-06    0.3507044255696146E-09    0.6102510857752819E-11    0.8774959925350601E-12   -0.1809672842134624E-08
 -0.2955   0.5042    0.5190786249545811E-01    0.1141245623053947E-02   -0.4833643628640803E-05    0.1197880534443791E+00   -0.1072035917022777E+01   -0.6097440681900270E-06    0.3803267527302534E-09    0.9290110347670577E-11    0.8321884847894978E-12   -0.1807167859801950E-08
 -0.3081   0.4808    0.4789326243459079E-01    0.1436977836754702E-02   -0.7011304306703069E-05    0.1451313505130235E+00   -0.1349707839661430E+01   -0.7677644190135842E-06    0.4152907566445929E-09    0.1217343587045505E-10    0.7824019210289634E-12   -0.1673734095763990E-08
 -0.3212   0.4563    0.4305475863587098E-01    0.1854482274649260E-02   -0.9028707987252375E-05    0.1628595959008595E+00   -0.1740075202242085E+01   -0.9911701652836942E-06    0.4527184703506659E-09    0.1451236353311458E-10    0.6953534970044473E-12   -0.1401079766094604E-08
 -0.3349   0.4309    0.3767847555816427E-01    0.2392236953993321E-02   -0.1089373165914441E-04    0.1748393130662184E+00   -0.2241721968461800E+01   -0.1279138629676395E-05    0.4895932166626427E-09    0.1609919836331741E-10    0.5753592047241796E-12   -0.1007351008164292E-08
 -0.3490   0.4047    0.3205030453894943E-01    0.3046297097056154E-02   -0.1258486044421429E-04    0.1830424565810091E+00   -0.2850823611295399E+01   -0.1629593643808952E-05    0.5234287552002836E-09    0.1672539190478162E-10    0.5219158438762861E-12   -0.5350437939921626E-09
 -0.3635   0.3777    0.2646269029671985E-01    0.3808588793862611E-02   -0.1405400812320306E-04    0.1891788591394730E+00   -0.3559628257158020E+01   -0.2038242805149470E-05    0.5524253658684142E-09    0.1615389072506801E-10    0.4290456878663917E-12   -0.3673313909990927E-10
 -0.3783   0.3501    0.2121954002444002E-01    0.4664301812353686E-02   -0.1519741226889587E-04    0.1944996766546719E+00   -0.4354104306640321E+01   -0.2497208183789144E-05    0.5754180257278030E-09    0.1425332768478782E-10    0.3472361287393255E-12    0.4391446092400289E-09
 -0.3934   0.3220    0.1663438611639245E-01    0.5590703458735058E-02   -0.1592614121023466E-04    0.1997916420338955E+00   -0.5212899529152925E+01   -0.2994330710952791E-05    0.5915721523752637E-09    0.1102423707877165E-10    0.2291639100704401E-12    0.8608029059518907E-09
 -0.4087   0.2936    0.1301892283252818E-01    0.6557786970238856E-02   -0.1615391320049015E-04    0.2054909911767793E+00   -0.6107979088734281E+01   -0.3513564508537800E-05    0.5998573790466644E-09    0.6643352534752012E-11    0.1383060332926789E-12    0.1212539128998824E-08
 -0.4241   0.2649    0.1066339484384646E-01    0.7530159309894832E-02   -0.1583653204508164E-04    0.2118222244691187E+00   -0.7006412449052648E+01   -0.4035923843277941E-05    0.5990726525961776E-09    0.1449146358467601E-11    0.6143696662519460E-13    0.1491756899431318E-08
 -0.4395   0.2361    0.9812382009366211E-02    0.8469139374112707E-02   -0.1493428181077161E-04    0.2189030089985245E+00   -0.7872318841028785E+01   -0.4540673370936905E-05    0.5879741936387628E-09   -0.4140382481310212E-11   -0.3677613769070831E-14    0.1702724456223437E-08
 -0.4550   0.2073    0.1064038553182488E-01    0.9334235424049524E-02   -0.1342203479458562E-04    0.2268032364671118E+00   -0.8668252566105938E+01   -0.5006047919294811E-05    0.5655573058482855E-09   -0.9745315665554699E-11   -0.5803690861228006E-13    0.1852674682938094E-08
 -0.4704   0.1786    0.1322867497152035E-01    0.1008369613999261E-01   -0.1124980134111144E-04    0.2355708979696083E+00   -0.9355704954780691E+01   -0.5409625807285033E-05    0.5312976274207681E-09   -0.1504463220669550E-10   -0.8358591596646647E-13    0.1948825977329816E-08
 -0.4857   0.1502    0.1754342175816201E-01    0.1067461025690555E-01   -0.8363224964367887E-05    0.2452403064023038E+00   -0.9895233216921385E+01   -0.5728293243564582E-05    0.4852267095067919E-09   -0.1983585518061659E-10   -0.6135369989834771E-13    0.1998215511458956E-08
 -0.5008   0.1221    0.2341480399808130E-01    0.1106356249564899E-01   -0.4700036006400821E-05    0.2558325827133159E+00   -0.1024707444740891E+02   -0.5938684233294812E-05    0.4277712697953184E-09   -0.2407135601956156E-10   -0.7251144129583054E-15    0.2006467308274251E-08
 -0.5156   0.0945    0.3052053044614979E-01    0.1120907972497591E-01   -0.2477753063394784E-06    0.2673531162964873E+00   -0.1037345099797289E+02   -0.6018389636447127E-05    0.3597838666531336E-09   -0.2771888274466505E-10    0.4937459404004418E-13    0.1979038604868477E-08
 -0.5301   0.0675    0.3838161099333129E-01    0.1107669552697781E-01    0.4920864933919212E-05    0.2797880356815377E+00   -0.1024321134881268E+02   -0.5948790189568576E-05    0.2822553926695726E-09   -0.3075839583033257E-10    0.1248792735886184E-12    0.1920938746610701E-08
 -0.5442   0.0413    0.4638241416950883E-01    0.1064653075827684E-01    0.1058057631175376E-04    0.2931007851969355E+00   -0.9838789032346611E+01   -0.5719023103217263E-05    0.1967009749526127E-09   -0.3311373397707484E-10    0.2090411177491092E-12    0.1836474576577540E-08
 -0.5578   0.0159    0.5382519610502683E-01    0.9921782666146819E-02    0.1634472570753191E-04    0.3072296319810843E+00   -0.9163865950797206E+01   -0.5330701992139661E-05    0.1052214565477883E-09   -0.3464983855394621E-10    0.2883804306463844E-12    0.1730116190937214E-08
 -0.5710  -0.0086    0.6002029650411402E-01    0.8935137569293978E-02    0.2168185470797601E-04    0.3220866781528005E+00   -0.8249148848417191E+01   -0.4801252283529959E-05    0.1079884792698493E-10   -0.3512945490058428E-10    0.3621269950571104E-12    0.1606221808336805E-08
 -0.5836  -0.0321    0.6439654792966594E-01    0.7749611461776149E-02    0.2602144958494824E-04    0.3375584232362218E+00   -0.7152948322201232E+01   -0.4164552559500607E-05   -0.8268143114609217E-10   -0.3440120410758141E-10    0.4391070840270572E-12    0.1468695885395443E-08
 -0.5955  -0.0543    0.6660156506764943E-01    0.6451710080624984E-02    0.2887848577374755E-04    0.3535071084810839E+00   -0.5954869836993735E+01   -0.3467088418219097E-05   -0.1709604124933151E-09   -0.3238609380673552E-10    0.4184985691324528E-12    0.1322280658230812E-08
 -0.6068  -0.0754    0.6655778124485771E-01    0.5137745142124645E-02    0.2998870271395413E-04    0.3697712952190716E+00   -0.4743225727027969E+01   -0.2760780790318817E-05   -0.2500006660022258E-09   -0.2918981722999092E-10    0.3992639552308219E-12    0.1170641122233418E-08
 -0.6174  -0.0951    0.6445486706974654E-01    0.3897402277529868E-02    0.2936097425921105E-04    0.3861640071559163E+00   -0.3600139581005167E+01   -0.2093889500584736E-05   -0.3168454734692183E-09   -0.2509675800510536E-10    0.4016231791581504E-12    0.1017293690258603E-08
 -0.6272  -0.1134    0.6068445457039202E-01    0.2799951734679228E-02    0.2725197303247280E-04    0.4024679439631751E+00   -0.2588952753165612E+01   -0.1503822231019011E-05   -0.3700281608898237E-09   -0.2050293268496262E-10    0.3514549762329011E-12    0.8665390262979633E-09
 -0.6363  -0.1302    0.5574537408899818E-01    0.1887205040410615E-02    0.2405614696432287E-04    0.4184298357739289E+00   -0.1747942012510177E+01   -0.1013026621456465E-05   -0.4096471425962811E-09   -0.1582657616072680E-10    0.3471667398002865E-12    0.7207057416136475E-09
 -0.6444  -0.1454    0.5015301431661016E-01    0.1173993865242485E-02    0.2017979937304808E-04    0.4337588575002827E+00   -0.1090652383011519E+01   -0.6295964919076655E-06   -0.4370426937017058E-09   -0.1144854350210167E-10    0.3434058593043687E-12    0.5823512991276480E-09
 -0.6517  -0.1590    0.4437648452128713E-01    0.6539984859665193E-03    0.1594400503892250E-04    0.4481349566539116E+00   -0.6113117861631463E+00   -0.3500102171948068E-06   -0.4543162339387674E-09   -0.7662958809162568E-11    0.3617384169984916E-12    0.4545267755923232E-09
 -0.6581  -0.1709    0.3880929429749533E-01    0.3070412986019583E-03    0.1155890816289763E-04    0.4612300241204281E+00   -0.2912426882520510E+00   -0.1635748494109271E-06   -0.4639440220888247E-09   -0.4661000752026467E-11    0.3664429870653407E-12    0.3390529194208236E-09
 -0.6636  -0.1810    0.3376494928265822E-01    0.1046277853797921E-03    0.7200006852383821E-05    0.4727384454563916E+00   -0.1040617059435721E+00   -0.5482054652557928E-07   -0.4683389318721476E-09   -0.2533889764677610E-11    0.3745892485085278E-12    0.2385531988960410E-09
 -0.6681  -0.1894    0.2948091408247443E-01    0.1208304845781950E-04    0.3174267555385463E-05    0.4824072115464262E+00   -0.1734331839317613E-01   -0.5410138203183430E-08   -0.4699053594153790E-09   -0.1273540300994469E-11    0.4009848009189909E-12    0.1537456880557064E-09
 -0.6716  -0.1959    0.2611627869742684E-01   -0.1064853103482665E-04    0.8203858698330282E-07    0.4900540826260700E+00    0.5991374320792147E-02    0.6468466184848880E-08   -0.4705488836575199E-09   -0.7221549747082889E-12    0.4108868193603010E-12    0.8698151096955820E-10
 -0.6741  -0.2006    0.2373987993455813E-01   -0.5121919304018932E-05   -0.1206716511825225E-05    0.4955674068784012E+00    0.3996706547676858E-02    0.2818695311719583E-08   -0.4719217603504910E-09   -0.5814636966361419E-12    0.4610066668686574E-12    0.3856737845753244E-10
 -0.6756  -0.2034    0.2233341516990090E-01   -0.2202729286908407E-06   -0.2202074154756145E-06    0.4988904143044285E+00    0.7361859629474658E-03    0.1876738047634239E-09   -0.4739653116595660E-09   -0.3198599154638493E-12    0.3333505346758692E-12    0.9460277125474675E-11
 -0.6761  -0.2044    0.2186571995212775E-01    0.0000000000000000E+00    0.0000000000000000E+00    0.5000000000000000E+00   -0.4366172835002533E-04    0.0000000000000000E+00    0.0000000000000000E+00    0.0000000000000000E+00    0.0000000000000000E+00    0.0000000000000000E+00
 -0.2001   0.6751    0.2557535217812185E-01    0.0000000000000000E+00    0.0000000000000000E+00   -0.5000000000000000E+00   -0.4778688274451142E-02    0.0000000000000000E+00    0.0000000000000000E+00    0.0000000000000000E+00    0.0000000000000000E+00    0.0000000000000000E+00
 -0.2006   0.6741    0.2603317112146571E-01    0.2395905599683222E-05   -0.7069497339148121E-05   -0.4949561933717230E+00   -0.8958376269776188E-02   -0.3417123599162374E-08    0.2877431192621627E-09    0.1090429206348012E-11    0.1442241725352345E-11   -0.1481003069746939E-10
 -0.2021   0.6713    0.2737415454767670E-01    0.3883590866576637E-04   -0.3883942643144185E-04   -0.4798493742027811E+00   -0.2087784540817318E-01   -0.7514516498021886E-07    0.2898913331605968E-09    0.3095654049940777E-11    0.3579605362125093E-11   -0.5790474176536886E-10
 -0.2047   0.6666    0.2952587168544918E-01    0.1936218823171318E-03   -0.8688213113094676E-04   -0.4547723087208712E+00   -0.5030968420746865E-01   -0.4181386189765308E-06    0.2935846635243600E-09    0.3633776439471159E-11    0.4581803686454222E-11   -0.1301621831151234E-09
 -0.2082   0.6600    0.3242072266573034E-01    0.5501840988938615E-03   -0.1238659196035532E-03   -0.4199488966648627E+00   -0.1175865770590438E+00   -0.1220357213168746E-05    0.2972235998988104E-09    0.1926788589790007E-11    0.5015918236317418E-11   -0.2310387853254880E-09
 -0.2127   0.6517    0.3598017763435687E-01    0.1114297076529661E-02   -0.1365181253248466E-03   -0.3758541971127183E+00   -0.2299468041973541E+00   -0.2479835269570977E-05    0.2999428552752370E-09   -0.1411849803734100E-11    0.5083905518787901E-11   -0.3605206237711212E-09
 -0.2181   0.6415    0.4005313872907917E-01    0.1803991538846161E-02   -0.1245486853662087E-03   -0.3233895695442547E+00   -0.3740835630861729E+00   -0.4003411828604625E-05    0.3014416979918444E-09   -0.5369329980631221E-11    0.4943025155856873E-11   -0.5172941311415435E-09
 -0.2245   0.6296    0.4438124091103004E-01    0.2486501465882007E-02   -0.9467868673068576E-04   -0.2640683325806041E+00   -0.5230689186970759E+00   -0.5493841571508619E-05    0.3019786018465531E-09   -0.8692463415727048E-11    0.4648292167841461E-11   -0.6987838294114646E-09
 -0.2318   0.6160    0.4860164180925673E-01    0.3028569362283902E-02   -0.5670724320408405E-04   -0.2001206454664870E+00   -0.6481111498934892E+00   -0.6658436138348385E-05    0.3023449546279977E-09   -0.1025181328717650E-10    0.4287986632434126E-11   -0.9007618401168926E-09