 title="result"
 variables="x","y","P","u","v","t","omega","psi","RES1","RES2","RES3","RES4"
zone,j= 49,i= 49,f=point
 -0.2355   0.6667    0.2475100630976184E-01    0.0000000000000000E+00    0.0000000000000000E+00   -0.5000000000000000E+00    0.0000000000000000E+00    0.0000000000000000E+00    0.0000000000000000E+00    0.0000000000000000E+00    0.0000000000000000E+00    0.0000000000000000E+00
 -0.2360   0.6658    0.2523132231751496E-01    0.0000000000000000E+00    0.0000000000000000E+00   -0.4950698848836391E+00    0.3890582462771263E-03    0.0000000000000000E+00    0.0000000000000000E+00    0.0000000000000000E+00    0.0000000000000000E+00    0.0000000000000000E+00
 -0.2373   0.6629    0.2661988856481405E-01    0.0000000000000000E+00    0.0000000000000000E+00   -0.4803035973790137E+00   -0.4585679548668477E-02    0.0000000000000000E+00    0.0000000000000000E+00    0.0000000000000000E+00    0.0000000000000000E+00    0.0000000000000000E+00
 -0.2396   0.6581    0.2883799393220977E-01    0.0000000000000000E+00    0.0000000000000000E+00   -0.4557914019900242E+00   -0.3994023879646762E-01    0.0000000000000000E+00    0.0000000000000000E+00    0.0000000000000000E+00    0.0000000000000000E+00    0.0000000000000000E+00
 -0.2428   0.6514    0.3183851292144276E-01    0.0000000000000000E+00    0.0000000000000000E+00   -0.4217480744682624E+00   -0.1229559840712490E+00    0.0000000000000000E+00    0.0000000000000000E+00    0.0000000000000000E+00    0.0000000000000000E+00    0.0000000000000000E+00
 -0.2469   0.6428    0.3553791470626727E-01    0.0000000000000000E+00    0.0000000000000000E+00   -0.3786211990824113E+00   -0.2488147415967303E+00    0.0000000000000000E+00    0.0000000000000000E+00    0.0000000000000000E+00    0.0000000000000000E+00    0.0000000000000000E+00
 -0.2519   0.6324    0.3976248463858614E-01    0.0000000000000000E+00    0.0000000000000000E+00   -0.3272482037025646E+00   -0.3964313221245583E+00    0.0000000000000000E+00    0.0000000000000000E+00    0.0000000000000000E+00    0.0000000000000000E+00    0.0000000000000000E+00
 -0.2577   0.6202    0.4423308898956837E-01    0.0000000000000000E+00    0.0000000000000000E+00   -0.2690263918720449E+00   -0.5367482033949352E+00    0.0000000000000000E+00    0.0000000000000000E+00    0.0000000000000000E+00    0.0000000000000000E+00    0.0000000000000000E+00
 -0.2644   0.6063    0.4857242241428523E-01    0.0000000000000000E+00    0.0000000000000000E+00   -0.2060208959013547E+00   -0.6427723159738715E+00    0.0000000000000000E+00    0.0000000000000000E+00    0.0000000000000000E+00    0.0000000000000000E+00    0.0000000000000000E+00
 -0.2718   0.5907    0.5234411471717215E-01    0.0000000000000000E+00    0.0000000000000000E+00   -0.1409240479523412E+00   -0.6997717075214901E+00    0.0000000000000000E+00    0.0000000000000000E+00    0.0000000000000000E+00    0.0000000000000000E+00    0.0000000000000000E+00
 -0.2800   0.5735    0.5511727515944232E-01    0.0000000000000000E+00    0.0000000000000000E+00   -0.7682175873129644E-01   -0.7133908973102279E+00    0.0000000000000000E+00    0.0000000000000000E+00    0.0000000000000000E+00    0.0000000000000000E+00    0.0000000000000000E+00
 -0.2890   0.5548    0.5654917878720045E-01    0.0000000000000000E+00    0.0000000000000000E+00   -0.1680528963037035E-01   -0.7112551360021582E+00    0.0000000000000000E+00    0.0000000000000000E+00    0.0000000000000000E+00    0.0000000000000000E+00    0.0000000000000000E+00
 -0.2986   0.5346    0.5645572637851270E-01    0.0000000000000000E+00    0.0000000000000000E+00    0.3646565404979702E-01   -0.7350645578408666E+00    0.0000000000000000E+00    0.0000000000000000E+00    0.0000000000000000E+00    0.0000000000000000E+00    0.0000000000000000E+00
 -0.3089   0.5131    0.5483830647402273E-01    0.0000000000000000E+00    0.0000000000000000E+00    0.8113708087105088E-01   -0.8261536483530924E+00    0.0000000000000000E+00    0.0000000000000000E+00    0.0000000000000000E+00    0.0000000000000000E+00    0.0000000000000000E+00
 -0.3199   0.4902    0.5185317638822742E-01    0.0000000000000000E+00    0.0000000000000000E+00    0.1163999852964220E+00   -0.1013261013723338E+01    0.0000000000000000E+00    0.0000000000000000E+00    0.0000000000000000E+00    0.0000000000000000E+00    0.0000000000000000E+00
 -0.3313   0.4663    0.4774857658948520E-01    0.0000000000000000E+00    0.0000000000000000E+00    0.1425527829177034E+00   -0.1309774224685621E+01    0.0000000000000000E+00    0.0000000000000000E+00    0.0000000000000000E+00    0.0000000000000000E+00    0.0000000000000000E+00
 -0.3433   0.4412    0.4280836286236475E-01    0.0000000000000000E+00    0.0000000000000000E+00    0.1608557365144325E+00   -0.1719060160263902E+01    0.0000000000000000E+00    0.0000000000000000E+00    0.0000000000000000E+00    0.0000000000000000E+00    0.0000000000000000E+00
 -0.3557   0.4151    0.3732446887887977E-01    0.0000000000000000E+00    0.0000000000000000E+00    0.1731837928986951E+00   -0.2240512062379034E+01    0.0000000000000000E+00    0.0000000000000000E+00    0.0000000000000000E+00    0.0000000000000000E+00    0.0000000000000000E+00
 -0.3686   0.3883    0.3159232052963966E-01    0.0000000000000000E+00    0.0000000000000000E+00    0.1815686889246900E+00   -0.2871203218547261E+01    0.0000000000000000E+00    0.0000000000000000E+00    0.0000000000000000E+00    0.0000000000000000E+00    0.0000000000000000E+00
 -0.3818   0.3606    0.2591551341102207E-01    0.0000000000000000E+00    0.0000000000000000E+00    0.1877904528318864E+00   -0.3603862335897296E+01    0.0000000000000000E+00    0.0000000000000000E+00    0.0000000000000000E+00    0.0000000000000000E+00    0.0000000000000000E+00
 -0.3953   0.3324    0.2060913622810486E-01    0.0000000000000000E+00    0.0000000000000000E+00    0.1931540830153771E+00   -0.4424277908931209E+01    0.0000000000000000E+00    0.0000000000000000E+00    0.0000000000000000E+00    0.0000000000000000E+00    0.0000000000000000E+00
 -0.4091   0.3036    0.1599655366582982E-01    0.0000000000000000E+00    0.0000000000000000E+00    0.1984771264209369E+00   -0.5310211366337627E+01    0.0000000000000000E+00    0.0000000000000000E+00    0.0000000000000000E+00    0.0000000000000000E+00    0.0000000000000000E+00
 -0.4230   0.2745    0.1239643370434923E-01    0.0000000000000000E+00    0.0000000000000000E+00    0.2042094221548498E+00   -0.6232147651457734E+01    0.0000000000000000E+00    0.0000000000000000E+00    0.0000000000000000E+00    0.0000000000000000E+00    0.0000000000000000E+00
 -0.4370   0.2451    0.1010145022166737E-01    0.0000000000000000E+00    0.0000000000000000E+00    0.2105801080208642E+00   -0.7155272154071477E+01    0.0000000000000000E+00    0.0000000000000000E+00    0.0000000000000000E+00    0.0000000000000000E+00    0.0000000000000000E+00
 -0.4511   0.2156    0.9352605334781494E-02    0.0000000000000000E+00    0.0000000000000000E+00    0.2177080285306846E+00   -0.8041651740704443E+01    0.0000000000000000E+00    0.0000000000000000E+00    0.0000000000000000E+00    0.0000000000000000E+00    0.0000000000000000E+00
 -0.4652   0.1861    0.1031379447991153E-01    0.0000000000000000E+00    0.0000000000000000E+00    0.2256632089243227E+00   -0.8851814404340534E+01    0.0000000000000000E+00    0.0000000000000000E+00    0.0000000000000000E+00    0.0000000000000000E+00    0.0000000000000000E+00
 -0.4793   0.1567    0.1304836576210535E-01    0.0000000000000000E+00    0.0000000000000000E+00    0.2344934215198504E+00   -0.9545451788441174E+01    0.0000000000000000E+00    0.0000000000000000E+00    0.0000000000000000E+00    0.0000000000000000E+00    0.0000000000000000E+00
 -0.4932   0.1276    0.1749782297976702E-01    0.0000000000000000E+00    0.0000000000000000E+00    0.2442324759223666E+00   -0.1008172633738394E+02    0.0000000000000000E+00    0.0000000000000000E+00    0.0000000000000000E+00    0.0000000000000000E+00    0.0000000000000000E+00
 -0.5069   0.0989    0.2346281225479947E-01    0.0000000000000000E+00    0.0000000000000000E+00    0.2549006448587346E+00   -0.1042014464823536E+02    0.0000000000000000E+00    0.0000000000000000E+00    0.0000000000000000E+00    0.0000000000000000E+00    0.0000000000000000E+00
 -0.5204   0.0706    0.3059013005786616E-01    0.0000000000000000E+00    0.0000000000000000E+00    0.2665020934754402E+00   -0.1052312420149837E+02    0.0000000000000000E+00    0.0000000000000000E+00    0.0000000000000000E+00    0.0000000000000000E+00    0.0000000000000000E+00
 -0.5336   0.0430    0.3837380591206755E-01    0.0000000000000000E+00    0.0000000000000000E+00    0.2790213915994536E+00   -0.1036092359773541E+02    0.0000000000000000E+00    0.0000000000000000E+00    0.0000000000000000E+00    0.0000000000000000E+00    0.0000000000000000E+00
 -0.5465   0.0161    0.4618149608790557E-01    0.0000000000000000E+00    0.0000000000000000E+00    0.2924202129766205E+00   -0.9918686413843906E+01    0.0000000000000000E+00    0.0000000000000000E+00    0.0000000000000000E+00    0.0000000000000000E+00    0.0000000000000000E+00
 -0.5589  -0.0099    0.5331475864812318E-01    0.0000000000000000E+00    0.0000000000000000E+00    0.3066350270377387E+00   -0.9203945558102035E+01    0.0000000000000000E+00    0.0000000000000000E+00    0.0000000000000000E+00    0.0000000000000000E+00    0.0000000000000000E+00
 -0.5709  -0.0350    0.5910177020463860E-01    0.0000000000000000E+00    0.0000000000000000E+00    0.3215763054937862E+00   -0.8251778238244551E+01    0.0000000000000000E+00    0.0000000000000000E+00    0.0000000000000000E+00    0.0000000000000000E+00    0.0000000000000000E+00
 -0.5824  -0.0590    0.6300520154310120E-01    0.0000000000000000E+00    0.0000000000000000E+00    0.3371292104268525E+00   -0.7124530281984941E+01    0.0000000000000000E+00    0.0000000000000000E+00    0.0000000000000000E+00    0.0000000000000000E+00    0.0000000000000000E+00
 -0.5933  -0.0818    0.6471474475285349E-01    0.0000000000000000E+00    0.0000000000000000E+00    0.3531549228645135E+00   -0.5904531820673390E+01    0.0000000000000000E+00    0.0000000000000000E+00    0.0000000000000000E+00    0.0000000000000000E+00    0.0000000000000000E+00
 -0.6036  -0.1034    0.6419300691266824E-01    0.0000000000000000E+00    0.0000000000000000E+00    0.3694910483555824E+00   -0.4680977921381317E+01    0.0000000000000000E+00    0.0000000000000000E+00    0.0000000000000000E+00    0.0000000000000000E+00    0.0000000000000000E+00
 -0.6132  -0.1235    0.6165924424308280E-01    0.0000000000000000E+00    0.0000000000000000E+00    0.3859495135382773E+00   -0.3534974954107910E+01    0.0000000000000000E+00    0.0000000000000000E+00    0.0000000000000000E+00    0.0000000000000000E+00    0.0000000000000000E+00
 -0.6222  -0.1423    0.5752026166326378E-01    0.0000000000000000E+00    0.0000000000000000E+00    0.4023116371700693E+00   -0.2527586145389952E+01    0.0000000000000000E+00    0.0000000000000000E+00    0.0000000000000000E+00    0.0000000000000000E+00    0.0000000000000000E+00
 -0.6304  -0.1595    0.5227686552278730E-01    0.0000000000000000E+00    0.0000000000000000E+00    0.4183226236254251E+00   -0.1694297359743117E+01    0.0000000000000000E+00    0.0000000000000000E+00    0.0000000000000000E+00    0.0000000000000000E+00    0.0000000000000000E+00
 -0.6379  -0.1751    0.4643787950083759E-01    0.0000000000000000E+00    0.0000000000000000E+00    0.4336904353718080E+00   -0.1046208799791929E+01    0.0000000000000000E+00    0.0000000000000000E+00    0.0000000000000000E+00    0.0000000000000000E+00    0.0000000000000000E+00
 -0.6445  -0.1890    0.4046227553861154E-01    0.0000000000000000E+00    0.0000000000000000E+00    0.4480947029818471E+00   -0.5757848866253517E+00    0.0000000000000000E+00    0.0000000000000000E+00    0.0000000000000000E+00    0.0000000000000000E+00    0.0000000000000000E+00
 -0.6503  -0.2012    0.3473373798106968E-01    0.0000000000000000E+00    0.0000000000000000E+00    0.4612082504036356E+00   -0.2635732518898393E+00    0.0000000000000000E+00    0.0000000000000000E+00    0.0000000000000000E+00    0.0000000000000000E+00    0.0000000000000000E+00
 -0.6553  -0.2116    0.2955803765877268E-01    0.0000000000000000E+00    0.0000000000000000E+00    0.4727275005281759E+00   -0.8315592924289932E-01    0.0000000000000000E+00    0.0000000000000000E+00    0.0000000000000000E+00    0.0000000000000000E+00    0.0000000000000000E+00
 -0.6594  -0.2201    0.2516797522381670E-01    0.0000000000000000E+00    0.0000000000000000E+00    0.4824019675382084E+00   -0.2827946183779034E-02    0.0000000000000000E+00    0.0000000000000000E+00    0.0000000000000000E+00    0.0000000000000000E+00    0.0000000000000000E+00
 -0.6626  -0.2268    0.2172144082752824E-01    0.0000000000000000E+00    0.0000000000000000E+00    0.4900516632630650E+00    0.1386056460036721E-01    0.0000000000000000E+00    0.0000000000000000E+00    0.0000000000000000E+00    0.0000000000000000E+00    0.0000000000000000E+00
 -0.6649  -0.2316    0.1929032547275859E-01    0.0000000000000000E+00    0.0000000000000000E+00    0.4955664246351956E+00    0.5462770013424120E-02    0.0000000000000000E+00    0.0000000000000000E+00    0.0000000000000000E+00    0.0000000000000000E+00    0.0000000000000000E+00
 -0.6663  -0.2345    0.1785281871513146E-01    0.0000000000000000E+00    0.0000000000000000E+00    0.4988901740685452E+00   -0.5271252652441306E-04    0.0000000000000000E+00    0.0000000000000000E+00    0.0000000000000000E+00    0.0000000000000000E+00    0.0000000000000000E+00
 -0.6667  -0.2355    0.1737388921130626E-01    0.0000000000000000E+00    0.0000000000000000E+00    0.5000000000000000E+00    0.0000000000000000E+00    0.0000000000000000E+00    0.0000000000000000E+00    0.0000000000000000E+00    0.0000000000000000E+00    0.0000000000000000E+00
 -0.2345   0.6663    0.2498207917251185E-01    0.0000000000000000E+00    0.0000000000000000E+00   -0.5000000000000000E+00    0.3893645857255613E-03    0.0000000000000000E+00    0.0000000000000000E+00    0.0000000000000000E+00    0.0000000000000000E+00    0.0000000000000000E+00
 -0.2350   0.6653    0.2546125853304307E-01    0.1476873348273601E-07   -0.1457901946072023E-07   -0.4950697377425281E+00   -0.6625887306784099E-03    0.4261113454184463E-11   -0.3814307546570229E-09    0.7793134627204212E-12    0.7510428910728617E-12   -0.1136270905924969E-10
 -0.2364   0.6624    0.2685170652154348E-01    0.6475964398555101E-05   -0.2137376514835874E-05   -0.4803030002117312E+00   -0.7973420007887694E-02   -0.3166677808651122E-08   -0.3761595115253646E-09    0.1391099908876203E-11    0.1109919448016861E-11   -0.4640318858328829E-10
 -0.2387   0.6576    0.2907307063864643E-01    0.4289227378598216E-04   -0.5088547424126581E-05   -0.4557900027923817E+00   -0.4043188438584302E-01   -0.2298855740871768E-07   -0.3713428366886040E-09    0.1300935813068615E-11    0.1079341477305817E-11   -0.1045034371538467E-09
 -0.2419   0.6509    0.3206784094652271E-01    0.1279166420203584E-03   -0.7012285099425579E-05   -0.4217454385516660E+00   -0.1162256864209474E+00   -0.6910810114528813E-07   -0.3683114993546788E-09    0.9256172217586567E-12    0.1099339369536878E-11   -0.1864576722188094E-09
 -0.2460   0.6423    0.3574983230986834E-01    0.2582167030866065E-03   -0.7561367399258341E-05   -0.3786168486954605E+00   -0.2337153473647820E+00   -0.1396661454431558E-06   -0.3665694588150803E-09    0.5087458232466702E-12    0.1097913426839625E-11   -0.2931481377088652E-09
 -0.2509   0.6319    0.3994680166289936E-01    0.4124838445066047E-03   -0.6720246296348800E-05   -0.3272417289492012E+00   -0.3742804444399208E+00   -0.2228868217042055E-06   -0.3658000499728864E-09    0.3309574836407592E-12    0.1105650293542482E-11   -0.4267487752063204E-09
 -0.2568   0.6198    0.4438205844965720E-01    0.5605440991876500E-03   -0.5005292775790495E-05   -0.2690175974054438E+00   -0.5105504436498758E+00   -0.3025359622181287E-06   -0.3648875576689470E-09    0.5952044412893542E-12    0.1050517312028987E-11   -0.5904121913591354E-09
 -0.2634   0.6058    0.4868206886063824E-01    0.6739994231542330E-03   -0.2906409847684126E-05   -0.2060099221813329E+00   -0.6164864124862640E+00   -0.3632652335007695E-06   -0.3624837712976059E-09    0.1408456684615089E-11    0.1058349588523022E-11   -0.7890597758519746E-09
 -0.2709   0.5903    0.5241470566218547E-01    0.7371316772474972E-03   -0.1087130822991069E-05   -0.1409114012025302E+00   -0.6774323086521300E+00   -0.3966917817113033E-06   -0.3567628336850759E-09    0.2788790032237642E-11    0.1024847741393220E-11   -0.1027076146353778E-08
 -0.2791   0.5731    0.5515326910907214E-01    0.7555359955559419E-03   -0.6300485977552676E-07   -0.7680822364602533E-01   -0.6982049057461318E+00   -0.4058608844747676E-06   -0.3456009375977630E-09    0.4692732313849035E-11    0.1004289316638984E-11   -0.1305692207131948E-08
 -0.2880   0.5543    0.5655797169639488E-01    0.7579253759260954E-03   -0.1719608541006509E-06   -0.1679176585778988E-01   -0.7048061971604986E+00   -0.4063135294021172E-06   -0.3264476298872956E-09    0.7033058163630201E-11    0.9998195847626956E-12   -0.1617741635095982E-08
 -0.2977   0.5342    0.5644569121662274E-01    0.7879510309512420E-03   -0.1333548981069588E-05    0.3647831312842188E-01   -0.7370891497168469E+00   -0.4215778891271907E-06   -0.2967058877235973E-09    0.9635089601167657E-11    0.9707764106470229E-12   -0.1942893554374159E-08
 -0.3080   0.5126    0.5481688410318611E-01    0.8891154651192080E-03   -0.3206428388391699E-05    0.8114817713345605E-01   -0.8349860491890464E+00   -0.4750799817265602E-06   -0.2542743515743240E-09    0.1224536097521600E-10    0.9627021402280889E-12   -0.2245195918071374E-08
 -0.3189   0.4898    0.5182603054754237E-01    0.1091882188435548E-02   -0.5335647845237296E-05    0.1164090402833694E+00   -0.1026677470687191E+01   -0.5831767885517466E-06   -0.1983018853290996E-09    0.1457244047653461E-10    0.9129398625962182E-12   -0.2477556992896979E-08
 -0.3304   0.4658    0.4771976932355129E-01    0.1410615035885847E-02   -0.7441598368521885E-05    0.1425595845254498E+00   -0.1325612373185723E+01   -0.7535518333436163E-06   -0.1294243046068289E-09    0.1633660567934569E-10    0.8825579156379604E-12   -0.2592778734766821E-08
 -0.3423   0.4407    0.4278087023132728E-01    0.1849011786059530E-02   -0.9409843882405860E-05    0.1608603622376419E+00   -0.1735336082067697E+01   -0.9881706553026539E-06   -0.4981583548446800E-10    0.1727270410034620E-10    0.8256381689442094E-12   -0.2559734497281640E-08
 -0.3548   0.4147    0.3730035992579415E-01    0.2406386055046769E-02   -0.1124519798419538E-04    0.1731865739556074E+00   -0.2255172718175011E+01   -0.1286667698275189E-05    0.3740636619897764E-10    0.1707721464239143E-10    0.7668032875329800E-12   -0.2374714192648897E-08
 -0.3676   0.3878    0.3157262518437216E-01    0.3079423793048901E-02   -0.1291762429333878E-04    0.1815701017509525E+00   -0.2881856477446568E+01   -0.1647308037411410E-05    0.1284888619113023E-09    0.1541350033718025E-10    0.7005160340689542E-12   -0.2064447970212546E-08
 -0.3808   0.3602    0.2590008321027190E-01    0.3860095311611625E-02   -0.1436464561042836E-04    0.1877909786604972E+00   -0.3607657023767799E+01   -0.2065828869782774E-05    0.2195288013873142E-09    0.1195041635093652E-10    0.6361855486858303E-12   -0.1674408590078558E-08
 -0.3943   0.3319    0.2059669978782757E-01    0.4732968668527542E-02   -0.1547312125854202E-04    0.1931541013966878E+00   -0.4417953506464150E+01   -0.2534019011064376E-05    0.3064425935228599E-09    0.6487702736146517E-11    0.5729444696456198E-12   -0.1253776081436633E-08
 -0.4081   0.3032    0.1598494088968547E-01    0.5674112747447972E-02   -0.1614475511299398E-04    0.1984768792271429E+00   -0.5290277592508059E+01   -0.3039079382043419E-05    0.3848852660193192E-09   -0.9693218450124164E-12    0.4882205750789126E-12   -0.8426049133598845E-09
 -0.4220   0.2740    0.1238285941733598E-01    0.6651944544450878E-02   -0.1629052714358185E-04    0.2042090353453288E+00   -0.6195138049201097E+01   -0.3564115285968188E-05    0.4501335276740903E-09   -0.1014706374480312E-10    0.4225925165357580E-12   -0.4660663274584642E-09
 -0.4360   0.2447    0.1008277034622645E-01    0.7629358334932055E-02   -0.1586449406597977E-04    0.2105796345192151E+00   -0.7098031086705999E+01   -0.4089221232332393E-05    0.4973030945376600E-09   -0.2050881686699313E-10    0.3413935800722356E-12   -0.1371092041985156E-09
 -0.4502   0.2152    0.9325468733591471E-02    0.8566055889276180E-02   -0.1483039125295815E-04    0.2177074845437360E+00   -0.7961600576463528E+01   -0.4592787514977652E-05    0.5218022992858895E-09   -0.3138503346100663E-10    0.2771394225220547E-12    0.1404078832367706E-09
 -0.4643   0.1857    0.1027469304525070E-01    0.9420224218206536E-02   -0.1316695176733435E-04    0.2256625954818652E+00   -0.8747206785930675E+01   -0.5052336123400592E-05    0.5199874177075348E-09   -0.4199274261651453E-10    0.2176245295082424E-12    0.3672999109721742E-09
 -0.4783   0.1563    0.1299358802490625E-01    0.1014928826991221E-01   -0.1083307865519856E-04    0.2344927346326236E+00   -0.9415613791051138E+01   -0.5444994356203416E-05    0.4897755360999678E-09   -0.5163303118393969E-10    0.1727229470560587E-12    0.5459056401369011E-09
 -0.4922   0.1272    0.1742341676337366E-01    0.1071025129201099E-01   -0.7785962856308303E-05    0.2442317108186655E+00   -0.9927337026823388E+01   -0.5747597480895615E-05    0.4310100245458193E-09   -0.5968758820529274E-10    0.1587618925213974E-12    0.6804849999458851E-09
 -0.5060   0.0984    0.2336462043811013E-01    0.1106064555980630E-01   -0.3982263494892881E-05    0.2548997978240152E+00   -0.1024352504502651E+02   -0.5937279595605165E-05    0.3456438520815786E-09   -0.6566458488066473E-10    0.1285846429333048E-12    0.7744842007301189E-09
 -0.5195   0.0702    0.3046404010873630E-01    0.1116126253929928E-01    0.5672712530069764E-06    0.2665011627934634E+00   -0.1032851751248079E+02   -0.5992845517082113E-05    0.2377643899906939E-09   -0.6923878137499173E-10    0.1313320112383831E-12    0.8315729493890700E-09
 -0.5327   0.0425    0.3821622276696617E-01    0.1098135135688385E-01    0.5762491394787204E-05    0.2790203779619647E+00   -0.1015459980171329E+02   -0.5897669082744289E-05    0.1132634073336414E-09   -0.7018374770240143E-10    0.1632582957711293E-12    0.8560420653586087E-09
 -0.5455   0.0156    0.4599006512082918E-01    0.1050598735561440E-01    0.1135540738680929E-04    0.2924191192656870E+00   -0.9708755747977037E+01   -0.5643556562338035E-05   -0.2041349728143516E-10   -0.6847111766461467E-10    0.1646113800823912E-12    0.8521321859938924E-09
 -0.5580  -0.0104    0.5308912588680923E-01    0.9743865796531260E-02    0.1694836380034646E-04    0.3066338573221754E+00   -0.8999688738877346E+01   -0.5235083918953562E-05   -0.1551099110264076E-09   -0.6428368948263596E-10    0.1668665206011610E-12    0.8242250076895274E-09
 -0.5699  -0.0355    0.5884418971801144E-01    0.8732574187451993E-02    0.2202089794268115E-04    0.3215750633131979E+00   -0.8062555383681966E+01   -0.4692326897070612E-05   -0.2827710079977841E-09   -0.5800782076903488E-10    0.1947331185192525E-12    0.7769119705208771E-09
 -0.5814  -0.0595    0.6272062502023167E-01    0.7538165836897555E-02    0.2603633824944145E-04    0.3371278969225689E+00   -0.6958399345660070E+01   -0.4050807081874681E-05   -0.3966165243451947E-09   -0.5021960625128941E-10    0.1948163852460993E-12    0.7149601691930352E-09
 -0.5923  -0.0823    0.6441032585345924E-01    0.6247428541364444E-02    0.2856109957391808E-04    0.3531535358938406E+00   -0.5767042743227820E+01   -0.3357172639546309E-05   -0.4921431179250035E-09   -0.4168193568077072E-10    0.1978972541394342E-12    0.6429302437660489E-09
 -0.6026  -0.1038    0.6387700309159640E-01    0.4954128346455897E-02    0.2938421652616483E-04    0.3694895840663205E+00   -0.4574447023133409E+01   -0.2661973793625597E-05   -0.5675527062209973E-09   -0.3313910257318753E-10    0.1857680675954043E-12    0.5655056284359361E-09
 -0.6123  -0.1240    0.6133976749828707E-01    0.3743395397776650E-02    0.2855442322992520E-04    0.3859479715238869E+00   -0.3458565126272025E+01   -0.2011018996855077E-05   -0.6235827271217076E-09   -0.2522501652002518E-10    0.1723343689974399E-12    0.4862611736877742E-09
 -0.6212  -0.1427    0.5720416251353258E-01    0.2679285107774487E-02    0.2634459790432621E-04    0.4023100289355023E+00   -0.2477977579545238E+01   -0.1438900150250070E-05   -0.6627522489144333E-09   -0.1837001384341619E-10    0.1995764664641797E-12    0.4093232731927632E-09
 -0.6294  -0.1599    0.5196922389760718E-01    0.1799025452750753E-02    0.2314196519620196E-04    0.4183209818322083E+00   -0.1666776246485118E+01   -0.9655969353851589E-06   -0.6884517053662442E-09   -0.1276082017831470E-10    0.2084582506611810E-12    0.3363355947916258E-09
 -0.6369  -0.1755    0.4614198299372244E-01    0.1114274578337984E-02    0.1933146976593549E-04    0.4336888191996108E+00   -0.1035606006028083E+01   -0.5974879502598409E-06   -0.7041467894874920E-09   -0.8391790734529891E-11    0.2032957135966740E-12    0.2686954114067275E-09
 -0.6435  -0.1894    0.4018013375857393E-01    0.6170827174268772E-03    0.1520882318529917E-04    0.4480931945951110E+00   -0.5771967906966452E+00   -0.3301792895989093E-06   -0.7128004991807657E-09   -0.5148428992157728E-11    0.1864619569857950E-12    0.2076303764336762E-09
 -0.6494  -0.2016    0.3446650481293268E-01    0.2868705721422539E-03    0.1096609772903481E-04    0.4612069401572043E+00   -0.2724981421449990E+00   -0.1527567273861774E-06   -0.7168451769679063E-09   -0.2885899852422824E-11    0.2076880334378473E-12    0.1538713757104349E-09
 -0.6543  -0.2120    0.2930623035245880E-01    0.9551258022264634E-04    0.6766842685459813E-05    0.4727264637706594E+00   -0.9546195902098618E-01   -0.4995650528166046E-07   -0.7181672530970351E-09   -0.1447234693197075E-11    0.2191961889774774E-12    0.1077938936028255E-09
 -0.6584  -0.2206    0.2493068994982663E-01    0.9166161758050588E-05    0.2912122245394025E-05    0.4824012412663834E+00   -0.1444276178830961E-01   -0.3878059932026996E-08   -0.7182887219042700E-09   -0.6800150720298603E-12    0.2603264825928875E-12    0.6927488877678245E-10
 -0.6616  -0.2273    0.2149484292498730E-01   -0.1101750646828376E-04   -0.1945049899860415E-07    0.4900512331639330E+00    0.6508257644105380E-02    0.6634302738996857E-08   -0.7183251542414518E-09   -0.3948161242384174E-12    0.2721453704751520E-12    0.3928844836270651E-10
 -0.6639  -0.2321    0.1906558539805866E-01   -0.5020861331868841E-05   -0.1196934661804447E-05    0.4955662294668348E+00    0.3978512367295078E-02    0.2754525955366098E-08   -0.7190848448374726E-09   -0.3413701613053099E-12    0.2907895278736472E-12    0.1744132789582853E-10
 -0.6653  -0.2350    0.1762571142689164E-01   -0.2094092408464285E-06   -0.2094031733783745E-06    0.4988901250436171E+00    0.7167398258299873E-03    0.1782475485773205E-09   -0.7203521472896879E-09   -0.1877138310242554E-12    0.2033616330887611E-12    0.4113210152253272E-11
 -0.6658  -0.2360    0.1714652570946570E-01    0.0000000000000000E+00    0.0000000000000000E+00    0.5000000000000000E+00   -0.5242091661978394E-04    0.0000000000000000E+00    0.0000000000000000E+00    0.0000000000000000E+00    0.0000000000000000E+00    0.0000000000000000E+00
 -0.2316   0.6649    0.2569614433614083E-01    0.0000000000000000E+00    0.0000000000000000E+00   -0.5000000000000000E+00   -0.4581571518477369E-02    0.0000000000000000E+00    0.0000000000000000E+00    0.0000000000000000E+00    0.0000000000000000E+00    0.0000000000000000E+00
 -0.2321   0.6639    0.2616662784818755E-01    0.2135893487986395E-05   -0.6473287738325099E-05   -0.4950675612334662E+00   -0.7972153088884179E-02   -0.3164928113606546E-08   -0.3765192550103658E-09    0.1086671334513123E-11    0.1486112014698060E-11   -0.1143003432787365E-10
 -0.2335   0.6610    0.2754683623683524E-01    0.3400052814426495E-04   -0.3400459453038300E-04   -0.4802942032352600E+00   -0.1777345748443230E-01   -0.6675286555717666E-07   -0.3744222674961772E-09    0.3185536903704822E-11    0.3632909945094909E-11   -0.4639563472991215E-10
 -0.2358   0.6562    0.2976382267553196E-01    0.1669169084814012E-03   -0.7426746668457573E-04   -0.4557695906346577E+00   -0.4254236537888240E-01   -0.3624898705434474E-06   -0.3710884238783407E-09    0.4007775014636117E-11    0.4477813952963317E-11   -0.1043540514417129E-09
 -0.2390   0.6495    0.3273886229075720E-01    0.4687816836268925E-03   -0.1043544649644370E-03   -0.4217073877012282E+00   -0.9925795627508170E-01   -0.1042395795921333E-05   -0.3681872931537988E-09    0.3394605777029547E-11    0.4679118204009569E-11   -0.1862887812759118E-09
 -0.2431   0.6410    0.3637204087512956E-01    0.9415431476804216E-03   -0.1139388141028143E-03   -0.3785544552627727E+00   -0.1934678425806772E+00   -0.2097898109218817E-05   -0.3662950567862033E-09    0.2391961628767092E-11    0.4555533034134029E-11   -0.2929056545919462E-09
 -0.2480   0.6306    0.4049117165981357E-01    0.1515760914467536E-02   -0.1033606839093008E-03   -0.3271490371969918E+00   -0.3138114630333809E+00   -0.3365457078564425E-05   -0.3651058830267395E-09    0.2119401876221616E-11    0.4298273542646669E-11   -0.4263756361866378E-09
 -0.2539   0.6184    0.4482567260072357E-01    0.2082382155415293E-02   -0.7846261745565529E-04   -0.2688914725299135E+00   -0.4381565177910630E+00   -0.4600908753247240E-05   -0.3637512652199248E-09    0.3440601969995072E-11    0.4014368698568305E-11   -0.5900768623723351E-09
 -0.2605   0.6045    0.4901236939706270E-01    0.2534375797134349E-02   -0.4749656128802666E-04   -0.2058518991212999E+00   -0.5434061312669335E+00   -0.5569061332851972E-05   -0.3608386159315025E-09    0.6813147268580622E-11    0.3756151639722205E-11   -0.7888373704245666E-09