 title="result"
 variables="x","y","P","u","v","t","omega","psi","RES1","RES2","RES3","RES4"
zone,j= 49,i= 49,f=point
 -0.5000   0.5000    0.2277358915253066E-01    0.0000000000000000E+00    0.0000000000000000E+00   -0.5000000000000000E+00    0.0000000000000000E+00    0.0000000000000000E+00    0.0000000000000000E+00    0.0000000000000000E+00    0.0000000000000000E+00    0.0000000000000000E+00
 -0.5000   0.4989    0.2330409439525408E-01    0.0000000000000000E+00    0.0000000000000000E+00   -0.4963881049790191E+00   -0.3804252432618080E-03    0.0000000000000000E+00    0.0000000000000000E+00    0.0000000000000000E+00    0.0000000000000000E+00    0.0000000000000000E+00
 -0.5000   0.4957    0.2489172147330224E-01    0.0000000000000000E+00    0.0000000000000000E+00   -0.4855692196792020E+00   -0.4694828946320108E-02    0.0000000000000000E+00    0.0000000000000000E+00    0.0000000000000000E+00    0.0000000000000000E+00    0.0000000000000000E+00
 -0.5000   0.4904    0.2750550965549433E-01    0.0000000000000000E+00    0.0000000000000000E+00   -0.4676014015380997E+00   -0.1088745156579721E-02    0.0000000000000000E+00    0.0000000000000000E+00    0.0000000000000000E+00    0.0000000000000000E+00    0.0000000000000000E+00
 -0.5000   0.4830    0.3101120033138524E-01    0.0000000000000000E+00    0.0000000000000000E+00   -0.4426041065668723E+00    0.3569546425373448E-01    0.0000000000000000E+00    0.0000000000000000E+00    0.0000000000000000E+00    0.0000000000000000E+00    0.0000000000000000E+00
 -0.5000   0.4735    0.3514690268490751E-01    0.0000000000000000E+00    0.0000000000000000E+00   -0.4107807259612194E+00    0.1220790183738913E+00    0.0000000000000000E+00    0.0000000000000000E+00    0.0000000000000000E+00    0.0000000000000000E+00    0.0000000000000000E+00
 -0.5000   0.4619    0.3957278777495440E-01    0.0000000000000000E+00    0.0000000000000000E+00   -0.3724320772542044E+00    0.2562664511520302E+00    0.0000000000000000E+00    0.0000000000000000E+00    0.0000000000000000E+00    0.0000000000000000E+00    0.0000000000000000E+00
 -0.5000   0.4484    0.4391660656923077E-01    0.0000000000000000E+00    0.0000000000000000E+00   -0.3279640267907856E+00    0.4181023296205135E+00    0.0000000000000000E+00    0.0000000000000000E+00    0.0000000000000000E+00    0.0000000000000000E+00    0.0000000000000000E+00
 -0.5000   0.4330    0.4781886813781857E-01    0.0000000000000000E+00    0.0000000000000000E+00   -0.2779151204049437E+00    0.5734563790933885E+00    0.0000000000000000E+00    0.0000000000000000E+00    0.0000000000000000E+00    0.0000000000000000E+00    0.0000000000000000E+00
 -0.5000   0.4157    0.5096704966336298E-01    0.0000000000000000E+00    0.0000000000000000E+00   -0.2230418225874365E+00    0.6821746900637452E+00    0.0000000000000000E+00    0.0000000000000000E+00    0.0000000000000000E+00    0.0000000000000000E+00    0.0000000000000000E+00
 -0.5000   0.3967    0.5311698937053640E-01    0.0000000000000000E+00    0.0000000000000000E+00   -0.1644834181112146E+00    0.7079104738333117E+00    0.0000000000000000E+00    0.0000000000000000E+00    0.0000000000000000E+00    0.0000000000000000E+00    0.0000000000000000E+00
 -0.5000   0.3759    0.5409549202242536E-01    0.0000000000000000E+00    0.0000000000000000E+00   -0.1039768338310132E+00    0.6270834142605003E+00    0.0000000000000000E+00    0.0000000000000000E+00    0.0000000000000000E+00    0.0000000000000000E+00    0.0000000000000000E+00
 -0.5000   0.3536    0.5379311311224565E-01    0.0000000000000000E+00    0.0000000000000000E+00   -0.4400703031565496E-01    0.4327910931981261E+00    0.0000000000000000E+00    0.0000000000000000E+00    0.0000000000000000E+00    0.0000000000000000E+00    0.0000000000000000E+00
 -0.5000   0.3297    0.5216160655381472E-01    0.0000000000000000E+00    0.0000000000000000E+00    0.1229826819001505E-01    0.1315309225780238E+00    0.0000000000000000E+00    0.0000000000000000E+00    0.0000000000000000E+00    0.0000000000000000E+00    0.0000000000000000E+00
 -0.5000   0.3044    0.4922809638906810E-01    0.0000000000000000E+00    0.0000000000000000E+00    0.6169088450644757E-01   -0.2652777168068354E+00    0.0000000000000000E+00    0.0000000000000000E+00    0.0000000000000000E+00    0.0000000000000000E+00    0.0000000000000000E+00
 -0.5000   0.2778    0.4511620080326153E-01    0.0000000000000000E+00    0.0000000000000000E+00    0.1016761729037130E+00   -0.7493827798423353E+00    0.0000000000000000E+00    0.0000000000000000E+00    0.0000000000000000E+00    0.0000000000000000E+00    0.0000000000000000E+00
 -0.5000   0.2500    0.4005234171893809E-01    0.0000000000000000E+00    0.0000000000000000E+00    0.1313406171313917E+00   -0.1318958646317913E+01    0.0000000000000000E+00    0.0000000000000000E+00    0.0000000000000000E+00    0.0000000000000000E+00    0.0000000000000000E+00
 -0.5000   0.2211    0.3434525817963446E-01    0.0000000000000000E+00    0.0000000000000000E+00    0.1516140867233358E+00   -0.1976593162973138E+01    0.0000000000000000E+00    0.0000000000000000E+00    0.0000000000000000E+00    0.0000000000000000E+00    0.0000000000000000E+00
 -0.5000   0.1913    0.2835237690213402E-01    0.0000000000000000E+00    0.0000000000000000E+00    0.1647668122058268E+00   -0.2724298296725784E+01    0.0000000000000000E+00    0.0000000000000000E+00    0.0000000000000000E+00    0.0000000000000000E+00    0.0000000000000000E+00
 -0.5000   0.1607    0.2245278999293122E-01    0.0000000000000000E+00    0.0000000000000000E+00    0.1734705989191643E+00   -0.3557697597282983E+01    0.0000000000000000E+00    0.0000000000000000E+00    0.0000000000000000E+00    0.0000000000000000E+00    0.0000000000000000E+00
 -0.5000   0.1294    0.1703207049705487E-01    0.0000000000000000E+00    0.0000000000000000E+00    0.1799920970506792E+00   -0.4461303948622269E+01    0.0000000000000000E+00    0.0000000000000000E+00    0.0000000000000000E+00    0.0000000000000000E+00    0.0000000000000000E+00
 -0.5000   0.0975    0.1246808117986830E-01    0.0000000000000000E+00    0.0000000000000000E+00    0.1858534906289385E+00   -0.5406602452594319E+01    0.0000000000000000E+00    0.0000000000000000E+00    0.0000000000000000E+00    0.0000000000000000E+00    0.0000000000000000E+00
 -0.5000   0.0653    0.9107594189052574E-02    0.0000000000000000E+00    0.0000000000000000E+00    0.1919046647805187E+00   -0.6353560954669956E+01    0.0000000000000000E+00    0.0000000000000000E+00    0.0000000000000000E+00    0.0000000000000000E+00    0.0000000000000000E+00
 -0.5000   0.0327    0.7232256019851423E-02    0.0000000000000000E+00    0.0000000000000000E+00    0.1985609719319897E+00   -0.7254505854147875E+01    0.0000000000000000E+00    0.0000000000000000E+00    0.0000000000000000E+00    0.0000000000000000E+00    0.0000000000000000E+00
 -0.5000   0.0000    0.7020676893539967E-02    0.0000000000000000E+00    0.0000000000000000E+00    0.2060154537037485E+00   -0.8058690032450542E+01    0.0000000000000000E+00    0.0000000000000000E+00    0.0000000000000000E+00    0.0000000000000000E+00    0.0000000000000000E+00
 -0.5000  -0.0327    0.8514604086423398E-02    0.0000000000000000E+00    0.0000000000000000E+00    0.2143644039326035E+00   -0.8716333751733149E+01    0.0000000000000000E+00    0.0000000000000000E+00    0.0000000000000000E+00    0.0000000000000000E+00    0.0000000000000000E+00
 -0.5000  -0.0653    0.1159541504220341E-01    0.0000000000000000E+00    0.0000000000000000E+00    0.2236633371347980E+00   -0.9181955375685137E+01    0.0000000000000000E+00    0.0000000000000000E+00    0.0000000000000000E+00    0.0000000000000000E+00    0.0000000000000000E+00
 -0.5000  -0.0975    0.1597474061189483E-01    0.0000000000000000E+00    0.0000000000000000E+00    0.2339458526028836E+00   -0.9417516982875121E+01    0.0000000000000000E+00    0.0000000000000000E+00    0.0000000000000000E+00    0.0000000000000000E+00    0.0000000000000000E+00
 -0.5000  -0.1294    0.2120331187716911E-01    0.0000000000000000E+00    0.0000000000000000E+00    0.2452271818815153E+00   -0.9396108676877930E+01    0.0000000000000000E+00    0.0000000000000000E+00    0.0000000000000000E+00    0.0000000000000000E+00    0.0000000000000000E+00
 -0.5000  -0.1607    0.2670250297500342E-01    0.0000000000000000E+00    0.0000000000000000E+00    0.2575026798124556E+00   -0.9106350311525157E+01    0.0000000000000000E+00    0.0000000000000000E+00    0.0000000000000000E+00    0.0000000000000000E+00    0.0000000000000000E+00
 -0.5000  -0.1913    0.3182185912827216E-01    0.0000000000000000E+00    0.0000000000000000E+00    0.2707453688518317E+00   -0.8556813897820531E+01    0.0000000000000000E+00    0.0000000000000000E+00    0.0000000000000000E+00    0.0000000000000000E+00    0.0000000000000000E+00
 -0.5000  -0.2211    0.3591982969692827E-01    0.0000000000000000E+00    0.0000000000000000E+00    0.2849041777896051E+00   -0.7778835965463646E+01    0.0000000000000000E+00    0.0000000000000000E+00    0.0000000000000000E+00    0.0000000000000000E+00    0.0000000000000000E+00
 -0.5000  -0.2500    0.3845558397021037E-01    0.0000000000000000E+00    0.0000000000000000E+00    0.2999034641213728E+00   -0.6825830122669585E+01    0.0000000000000000E+00    0.0000000000000000E+00    0.0000000000000000E+00    0.0000000000000000E+00    0.0000000000000000E+00
 -0.5000  -0.2778    0.3907072548922325E-01    0.0000000000000000E+00    0.0000000000000000E+00    0.3156436278299787E+00   -0.5767879010772766E+01    0.0000000000000000E+00    0.0000000000000000E+00    0.0000000000000000E+00    0.0000000000000000E+00    0.0000000000000000E+00
 -0.5000  -0.3044    0.3763793407232985E-01    0.0000000000000000E+00    0.0000000000000000E+00    0.3320018519746347E+00   -0.4682085991019205E+01    0.0000000000000000E+00    0.0000000000000000E+00    0.0000000000000000E+00    0.0000000000000000E+00    0.0000000000000000E+00
 -0.5000  -0.3297    0.3426213524673164E-01    0.0000000000000000E+00    0.0000000000000000E+00    0.3488314888889533E+00   -0.3640996041332422E+01    0.0000000000000000E+00    0.0000000000000000E+00    0.0000000000000000E+00    0.0000000000000000E+00    0.0000000000000000E+00
 -0.5000  -0.3536    0.2923631661990816E-01    0.0000000000000000E+00    0.0000000000000000E+00    0.3659588399650917E+00   -0.2702440929517165E+01    0.0000000000000000E+00    0.0000000000000000E+00    0.0000000000000000E+00    0.0000000000000000E+00    0.0000000000000000E+00
 -0.5000  -0.3759    0.2296969151782100E-01    0.0000000000000000E+00    0.0000000000000000E+00    0.3831774215500145E+00   -0.1903590029893123E+01    0.0000000000000000E+00    0.0000000000000000E+00    0.0000000000000000E+00    0.0000000000000000E+00    0.0000000000000000E+00
 -0.5000  -0.3967    0.1591241213734754E-01    0.0000000000000000E+00    0.0000000000000000E+00    0.4002420648635884E+00   -0.1260255193156719E+01    0.0000000000000000E+00    0.0000000000000000E+00    0.0000000000000000E+00    0.0000000000000000E+00    0.0000000000000000E+00
 -0.5000  -0.4157    0.8496504086969935E-02    0.0000000000000000E+00    0.0000000000000000E+00    0.4168672775184153E+00   -0.7704775568172301E+00    0.0000000000000000E+00    0.0000000000000000E+00    0.0000000000000000E+00    0.0000000000000000E+00    0.0000000000000000E+00
 -0.5000  -0.4330    0.1101471478860149E-02    0.0000000000000000E+00    0.0000000000000000E+00    0.4327345750459692E+00   -0.4202544432935106E+00    0.0000000000000000E+00    0.0000000000000000E+00    0.0000000000000000E+00    0.0000000000000000E+00    0.0000000000000000E+00
 -0.5000  -0.4484   -0.5957392001102197E-02    0.0000000000000000E+00    0.0000000000000000E+00    0.4475109063535200E+00   -0.1891329976778432E+00    0.0000000000000000E+00    0.0000000000000000E+00    0.0000000000000000E+00    0.0000000000000000E+00    0.0000000000000000E+00
 -0.5000  -0.4619   -0.1242664235831204E-01    0.0000000000000000E+00    0.0000000000000000E+00    0.4608755094484462E+00   -0.5411346047111343E-01    0.0000000000000000E+00    0.0000000000000000E+00    0.0000000000000000E+00    0.0000000000000000E+00    0.0000000000000000E+00
 -0.5000  -0.4735   -0.1810755352897118E-01    0.0000000000000000E+00    0.0000000000000000E+00    0.4725479696652970E+00    0.8594737385405692E-02    0.0000000000000000E+00    0.0000000000000000E+00    0.0000000000000000E+00    0.0000000000000000E+00    0.0000000000000000E+00
 -0.5000  -0.4830   -0.2285257461323763E-01    0.0000000000000000E+00    0.0000000000000000E+00    0.4823086887178191E+00    0.2336847857127521E-01    0.0000000000000000E+00    0.0000000000000000E+00    0.0000000000000000E+00    0.0000000000000000E+00    0.0000000000000000E+00
 -0.5000  -0.4904   -0.2656695259540833E-01    0.0000000000000000E+00    0.0000000000000000E+00    0.4900056513720009E+00    0.1449179738539989E-01    0.0000000000000000E+00    0.0000000000000000E+00    0.0000000000000000E+00    0.0000000000000000E+00    0.0000000000000000E+00
 -0.5000  -0.4957   -0.2921284555195476E-01    0.0000000000000000E+00    0.0000000000000000E+00    0.4955470975055193E+00    0.3224200372598834E-02    0.0000000000000000E+00    0.0000000000000000E+00    0.0000000000000000E+00    0.0000000000000000E+00    0.0000000000000000E+00
 -0.5000  -0.4989   -0.3080066936737729E-01    0.0000000000000000E+00    0.0000000000000000E+00    0.4988854056100034E+00   -0.1596588444939150E-03    0.0000000000000000E+00    0.0000000000000000E+00    0.0000000000000000E+00    0.0000000000000000E+00    0.0000000000000000E+00
 -0.5000  -0.5000   -0.3133371846183696E-01    0.0000000000000000E+00    0.0000000000000000E+00    0.5000000000000000E+00    0.0000000000000000E+00    0.0000000000000000E+00    0.0000000000000000E+00    0.0000000000000000E+00    0.0000000000000000E+00    0.0000000000000000E+00
 -0.4989   0.5000    0.2277641860124803E-01    0.0000000000000000E+00    0.0000000000000000E+00   -0.5000000000000000E+00   -0.3803874708033015E-03    0.0000000000000000E+00    0.0000000000000000E+00    0.0000000000000000E+00    0.0000000000000000E+00    0.0000000000000000E+00
 -0.4989   0.4989    0.2330692439329037E-01    0.3649182173455272E-06   -0.3649284615147769E-06   -0.4963880379453416E+00   -0.5620390603425735E-03   -0.2598690376542976E-09   -0.2595316918188942E-09   -0.4085294385766658E-12   -0.4139364632310683E-12    0.3285546910491294E-11
 -0.4989   0.4957    0.2489265460512395E-01    0.3316802418358491E-05   -0.4508126028117039E-06   -0.4855689545649311E+00   -0.1439909874347619E-02   -0.2024572390419698E-08   -0.2622840093984696E-09   -0.7751785324749960E-12   -0.6169130283657440E-12    0.1128055439857112E-10
 -0.4989   0.4904    0.2749806751041058E-01   -0.2249929143436863E-05    0.1506427951351296E-05   -0.4676008301395919E+00    0.5454339113086885E-02    0.5819720006813121E-09   -0.2647147162929131E-09   -0.8152992170273876E-12   -0.5549284989858627E-12    0.2576787004257564E-10
 -0.4989   0.4830    0.3099152798778728E-01   -0.4117316448114964E-04    0.3993590851553219E-05   -0.4426031774240105E+00    0.4130839484668640E-01    0.2155265230386327E-07   -0.2663383394038710E-09   -0.8139235813109380E-12   -0.6276888731004959E-12    0.4677061689328799E-10
 -0.4989   0.4735    0.3511761050596704E-01   -0.1310138602704069E-03    0.6000311198570914E-05   -0.4107794486532030E+00    0.1227410822281692E+00    0.7005944556192267E-07   -0.2677022735431134E-09   -0.8516390717638878E-12   -0.5800672442379806E-12    0.7603159768443390E-10
 -0.4989   0.4619    0.3953919078537579E-01   -0.2705800766677756E-03    0.6854354174765694E-05   -0.3724304776285783E+00    0.2492357099834643E+00    0.1455209487109340E-06   -0.2691100935842128E-09   -0.9672679324168598E-12   -0.5755326770717772E-12    0.1174145624477374E-09
 -0.4989   0.4484    0.4388516610185954E-01   -0.4391651720007836E-03    0.6425060380431072E-05   -0.3279620720667352E+00    0.4023340277608789E+00    0.2365588642717396E-06   -0.2712080768296765E-09   -0.1153944995113676E-11   -0.6015014875071500E-12    0.1759691212188663E-09
 -0.4989   0.4330    0.4779549040379107E-01   -0.6010915804654646E-03    0.4768734920758842E-05   -0.2779126488606001E+00    0.5494662310793447E+00    0.3240343330324704E-06   -0.2746102269191031E-09   -0.1284805595247462E-11   -0.5750469544985037E-12    0.2616468187943699E-09
 -0.4989   0.4157    0.5095616822115077E-01   -0.7140683597630573E-03    0.2232345822621750E-05   -0.2230385138030254E+00    0.6518117590435114E+00    0.3850959294973989E-06   -0.2800915220244060E-09   -0.1158517726196351E-11   -0.5833927091414282E-12    0.3850468034694021E-09
 -0.4989   0.3967    0.5312071048964362E-01   -0.7395883175292337E-03   -0.7443195883188940E-06   -0.1644788367030443E+00    0.6737493942459873E+00    0.3991343109365899E-06   -0.2883478152429508E-09   -0.5399014568752136E-12   -0.6285835567332310E-12    0.5562727709018667E-09
 -0.4989   0.3759    0.5411358235670825E-01   -0.6524153864606627E-03   -0.3657211102506685E-05   -0.1039705740468684E+00    0.5917306206041619E+00    0.3525767150477750E-06   -0.3002720285957827E-09    0.7329276074941049E-12   -0.6473849234467366E-12    0.7765826801064968E-09
 -0.4989   0.3536    0.5382356896769813E-01   -0.4448309029719562E-03   -0.6169991608361829E-05   -0.4399895511606391E-01    0.3982167557997793E+00    0.2414028682222828E-06   -0.3168519994989349E-09    0.2701103229973967E-11   -0.6291668575020282E-12    0.1028690667370658E-08
 -0.4989   0.3297    0.5220187612298473E-01   -0.1233257439918833E-03   -0.8153819436235446E-05    0.1230778519445741E-01    0.9884670764637025E-01    0.6912358387955468E-07   -0.3389209208420896E-09    0.5291656002270884E-11   -0.6094846849435953E-12    0.1268903815354605E-08
 -0.4989   0.3044    0.4927610297949857E-01    0.3002215899159327E-03   -0.9723103681590835E-05    0.6170089546571728E-01   -0.2956204238786190E+00   -0.1578018675517444E-06   -0.3663136634302067E-09    0.8416184416049077E-11   -0.5773506672746009E-12    0.1430195115115218E-08
 -0.4989   0.2778    0.4517087537277896E-01    0.8170688362579227E-03   -0.1106999662262320E-04    0.1016854136170605E+00   -0.7770945652038691E+00   -0.4347120848712864E-06   -0.3969703663009305E-09    0.1201502786152275E-10   -0.5315053952514859E-12    0.1443139462098397E-08
 -0.4989   0.2500    0.4011342202773294E-01    0.1425105283024975E-02   -0.1237100161736026E-04    0.1313480033333930E+00   -0.1343464528444738E+01   -0.7604747266414695E-06   -0.4267404173086131E-09    0.1607385752278034E-10   -0.4512501483588949E-12    0.1267010704686378E-08
 -0.4989   0.2211    0.3441281704310785E-01    0.2126775283264157E-02   -0.1368408460244378E-04    0.1516191342306962E+00   -0.1996700816086799E+01   -0.1136482547339314E-05   -0.4503573174108322E-09    0.2057060077831352E-10   -0.3704259121661835E-12    0.9121436661541082E-09
 -0.4989   0.1913    0.2842622027029855E-01    0.2923805356834805E-02   -0.1496472333456284E-04    0.1647697033126019E+00   -0.2738021244425361E+01   -0.1563712449431892E-05   -0.4628348225510504E-09    0.2548728589291116E-10   -0.2709776847353851E-12    0.4359485758498316E-09
 -0.4989   0.1607    0.2253201213181942E-01    0.3811065893814352E-02   -0.1606036906266436E-04    0.1734719125337112E+00   -0.3562213575507614E+01   -0.2039518324502813E-05   -0.4601940911674873E-09    0.3074454926754733E-10   -0.1793148962647706E-12   -0.8501677487005033E-10
 -0.4989   0.1294    0.1711477268948293E-01    0.4771627560744524E-02   -0.1677657321325018E-04    0.1799924570403731E+00   -0.4453141028448572E+01   -0.2554882846235695E-05   -0.4398604050437349E-09    0.3608373322361302E-10   -0.7359390874484006E-13   -0.5833796078592163E-09
 -0.4989   0.0975    0.1255142780913471E-01    0.5774822618460197E-02   -0.1691582710458133E-04    0.1858533543024175E+00   -0.5382021831219463E+01   -0.3093431505344915E-05   -0.4005423562269961E-09    0.4109342033320473E-10    0.6361577931102147E-13   -0.1017250777970297E-08
 -0.4989   0.0653    0.9188044170852533E-02    0.6777924792983569E-02   -0.1633998526559561E-04    0.1919042887492096E+00   -0.6309069534144554E+01   -0.3632257599232688E-05   -0.3422099582872651E-09    0.4525775587627123E-10    0.1586647480067427E-12   -0.1370351032734668E-08
 -0.4989   0.0327    0.7305917207389909E-02    0.7730305744562724E-02   -0.1497129930929598E-04    0.1985604709667791E+00   -0.7187371788884048E+01   -0.4144200313209033E-05   -0.2661589525165819E-09    0.4808498044184262E-10    0.2624983563848104E-12   -0.1642513295513348E-08
 -0.4989   0.0000    0.7083575360705834E-02    0.8578287541768466E-02   -0.1279713027970740E-04    0.2060148686618903E+00   -0.7967395618595281E+01   -0.4600401937268552E-05   -0.1750848008241768E-09    0.4922975915810923E-10    0.2967279200127848E-12   -0.1841111559215680E-08
 -0.4989  -0.0327    0.8562912433272634E-02    0.9269415913402156E-02   -0.9841801011341194E-05    0.2143637453089143E+00   -0.8600924174706384E+01   -0.4972644166619284E-05   -0.7281010516724251E-10    0.4857203528274567E-10    0.3263569969824687E-12   -0.1975454584635106E-08
 -0.4989  -0.0653    0.1162559956870150E-01    0.9755965400807099E-02   -0.6168256084735749E-05    0.2236626057304119E+00   -0.9044278132853311E+01   -0.5235202598455885E-05    0.3593928973866234E-10    0.4614186810414367E-10    0.2872771465156632E-12   -0.2054883295639354E-08
 -0.4989  -0.0975    0.1598377998911005E-01    0.9998240307549849E-02   -0.1876079707129208E-05    0.2339450475956501E+00   -0.9261335595240547E+01   -0.5366651213707017E-05    0.1460587553681059E-09    0.4219918858794358E-10    0.2270267307480367E-12   -0.2086755930379158E-08
 -0.4989  -0.1294    0.2118897554877539E-01    0.9968424388939998E-02    0.2871177717252180E-05    0.2452263035655426E+00   -0.9227039417322294E+01   -0.5351921025255776E-05    0.2526390372944998E-09    0.3704486717381883E-10    0.1145385869483206E-12   -0.2077525781615797E-08
 -0.4989  -0.1607    0.2666376694140035E-01    0.9655162448335490E-02    0.7831624376712850E-05    0.2575017302278151E+00   -0.8931557544433625E+01   -0.5184787701280189E-05    0.3513029780272126E-09    0.3109573709636493E-10   -0.1843664110268151E-13   -0.2032822942962809E-08
 -0.4989  -0.1913    0.3175931010372831E-01    0.9068130141807148E-02    0.1267475725110573E-04    0.2707443513522345E+00   -0.8384393004409919E+01   -0.4870342175200544E-05    0.4388154180301473E-09    0.2483557803856229E-10   -0.1991878884055609E-12   -0.1957627813325979E-08
 -0.4989  -0.2211    0.3583598053492970E-01    0.8240891486035955E-02    0.1701063907028462E-04    0.2849030958750885E+00   -0.7616916980789073E+01   -0.4426544688536424E-05    0.5132739233637551E-09    0.1874034261106772E-10   -0.3553130012434735E-12   -0.1856683995785091E-08
 -0.4989  -0.2500    0.3835485948474239E-01    0.7230080458927954E-02    0.2044706351960901E-04    0.2999023198803179E+00   -0.6681517238654872E+01   -0.3883812223902745E-05    0.5744692013753827E-09    0.1326860843420263E-10   -0.4943406795021588E-12   -0.1734474489381577E-08
 -0.4989  -0.2778    0.3895908677793258E-01    0.6109663735468102E-02    0.2267212682798174E-04    0.3156424206368373E+00   -0.5646300244745391E+01   -0.3281918403951182E-05    0.6233934618515846E-09    0.8749889701675784E-11   -0.6390721285498557E-12   -0.1595854698388521E-08
 -0.4989  -0.3044    0.3752210092971071E-01    0.4960806364144692E-02    0.2352900373369228E-04    0.3320005783980389E+00   -0.4585790433923282E+01   -0.2664563872642069E-05    0.6621610898482899E-09    0.5389050317106125E-11   -0.7734368701051153E-12   -0.1444968179831196E-08
 -0.4989  -0.3297    0.3414866966389239E-01    0.3859763353025566E-02    0.2305042793057752E-04    0.3488301447747527E+00   -0.3569908233451173E+01   -0.2072802871426128E-05    0.6931548321431613E-09    0.3181843677424467E-11   -0.8656131367246189E-12   -0.1287068548960768E-08
 -0.4989  -0.3536    0.2913075560177463E-01    0.2867283260652729E-02    0.2144444104637644E-04    0.3659574251321345E+00   -0.2654304605025424E+01   -0.1539376454381598E-05    0.7185228245720765E-09    0.1975308805413079E-11   -0.9237471898515537E-12   -0.1126046441854434E-08
 -0.4989  -0.3759    0.2287603966172897E-01    0.2022411946856636E-02    0.1902327142856965E-04    0.3831759463906292E+00   -0.1874764481289610E+01   -0.1085295653428150E-05    0.7398160972726942E-09    0.1505129354484325E-11   -0.9604816941788386E-12   -0.9669377191295903E-09
 -0.4989  -0.3967    0.1583300184001166E-01    0.1341775238770741E-02    0.1612838288009099E-04    0.4002405567129407E+00   -0.1246525377636252E+01   -0.7195408291099864E-06    0.7579297849058531E-09    0.1480628120109628E-11   -0.9679895773828662E-12   -0.8130428535285672E-09
 -0.4989  -0.4157    0.8432255065147096E-02    0.8233270242412377E-03    0.1304568616173730E-04    0.4168657836866818E+00   -0.7677380513679318E+00   -0.4409734447446055E-06    0.7732259311998835E-09    0.1644687858126659E-11   -0.9610298667972472E-12   -0.6673698694364960E-09
 -0.4989  -0.4330    0.1052291936368756E-02    0.4523288054341057E-03    0.9983868470400954E-05    0.4327331597483068E+00   -0.4248538980650090E+00   -0.2417029371253094E-06    0.7858331901866578E-09    0.1808863822616580E-11   -0.9488590468897939E-12   -0.5327995006992881E-09
 -0.4989  -0.4484   -0.5992163164924802E-02    0.2071864505490274E-03    0.7052719853542959E-05    0.4475096406945585E+00   -0.1980070050794215E+00   -0.1100622475515087E-06    0.7957864697066830E-09    0.1876002825307310E-11   -0.9404352296904506E-12   -0.4115639131579973E-09
 -0.4989  -0.4619   -0.1244804354576871E-01    0.6352918360995875E-04    0.4335393029432706E-05    0.4608744564642836E+00   -0.6463705228883557E-01   -0.3303190328290441E-07    0.8033273300039889E-09    0.1823260292743711E-11   -0.9310746618140797E-12   -0.3043575053443548E-09
 -0.4989  -0.4735   -0.1811711120963473E-01   -0.3947882606665048E-05    0.1913555763895725E-05    0.4725471689183838E+00   -0.1299375649034053E-02    0.3054137189707511E-08    0.8087944198924280E-09    0.1690102918727732E-11   -0.9149538765518272E-12   -0.2124389501118040E-09
 -0.4989  -0.4830   -0.2285279265470271E-01   -0.2116070314167359E-04    0.2063765942560614E-07    0.4823081459304147E+00    0.1611826208132652E-01    0.1197888309123942E-07    0.8128852423811266E-09    0.1530935100912956E-11   -0.9184493443559205E-12   -0.1365454338139727E-09
 -0.4989  -0.4904   -0.2656210227669355E-01   -0.1377525520070642E-04   -0.1057337825316197E-05    0.4900053373052294E+00    0.1117445064086547E-01    0.7722869903940883E-08    0.8162395585820104E-09    0.1382074142630696E-11   -0.8810608492781924E-12   -0.7666448031962148E-10
 -0.4989  -0.4957   -0.2920898973844104E-01   -0.3496022745504645E-05   -0.9884635547411348E-06    0.4955469567067448E+00    0.3423843226564981E-02    0.1822734473398881E-08    0.8201857665257606E-09    0.1227004175347046E-11   -0.9293173869329152E-12   -0.3439144184280013E-10
 -0.4989  -0.4989   -0.3079905004893142E-01   -0.6718689996422800E-07   -0.6749117659655937E-07    0.4988853703677233E+00    0.4456901987369709E-03    0.6081286141459953E-10    0.8244485823205583E-09    0.6380451722520775E-12   -0.6335496363640836E-12   -0.8588797668950335E-11
 -0.4989  -0.5000   -0.3133209993936961E-01    0.0000000000000000E+00    0.0000000000000000E+00    0.5000000000000000E+00   -0.1590803327297611E-03    0.0000000000000000E+00    0.0000000000000000E+00    0.0000000000000000E+00    0.0000000000000000E+00    0.0000000000000000E+00
 -0.4957   0.5000    0.2276337745510222E-01    0.0000000000000000E+00    0.0000000000000000E+00   -0.5000000000000000E+00   -0.4695042874689893E-02    0.0000000000000000E+00    0.0000000000000000E+00    0.0000000000000000E+00    0.0000000000000000E+00    0.0000000000000000E+00
 -0.4957   0.4989    0.2329577720818416E-01    0.4509145912460090E-06   -0.3317191644915046E-05   -0.4963870334476064E+00   -0.1440452995317725E-02   -0.2024775813366530E-08   -0.2622336624106061E-09   -0.5983144210110203E-12   -0.7907292442349556E-12    0.2790793149961418E-11
 -0.4957   0.4957    0.2488150157295765E-01   -0.8288254965705823E-06    0.8308008918232698E-06   -0.4855649782980352E+00    0.6823160292221726E-02   -0.1026794536719036E-07   -0.2632489625592482E-09   -0.1806407454174597E-11   -0.1870936565395720E-11    0.1155114068632224E-10
 -0.4957   0.4904    0.2747220183636463E-01   -0.3883656800759715E-04    0.2586727544738482E-04   -0.4675921957997787E+00    0.2144065297411224E-01    0.5692649160257699E-07   -0.2649137298416093E-09   -0.2591500798676538E-11   -0.2235990906318541E-11    0.2579130832514043E-10
 -0.4957   0.4830    0.3093841103186885E-01   -0.1911595471467870E-03    0.6112476529299271E-04   -0.4425888784658593E+00    0.5522786200059033E-01    0.3854878124317375E-06   -0.2664324559586984E-09   -0.2920279469631470E-11   -0.2295649781380860E-11    0.4682591987770213E-10
 -0.4957   0.4735    0.3503996181412770E-01   -0.5228190448036941E-03    0.9040132050602666E-04   -0.4107592553258477E+00    0.1231450727800213E+00    0.1119834249671031E-05   -0.2677826155261798E-09   -0.3262153134425683E-11   -0.2277216609725130E-11    0.7604829092844323E-10
 -0.4957   0.4619    0.3944973154089977E-01   -0.1035523351835168E-02    0.1036301059680336E-03   -0.3724044137223499E+00    0.2279979749703581E+00    0.2258329588182639E-05   -0.2692251629965448E-09   -0.3818004939981634E-11   -0.2255032965914339E-11    0.1171303141284108E-09
 -0.4957   0.4484    0.4380098041896582E-01   -0.1656330110739810E-02    0.9719446759025642E-04   -0.3279294535623432E+00    0.3559392727750859E+00    0.3635563025472663E-05   -0.2713067825954596E-09   -0.4586254986893579E-11   -0.2271231813733010E-11    0.1760136446316007E-09
 -0.4957   0.4330    0.4773311273631852E-01   -0.2252769995491440E-02    0.7209988401860367E-04   -0.2778711548626252E+00    0.4791433146214806E+00    0.4958905634908190E-05   -0.2746573524170515E-09   -0.5118211410248819E-11   -0.2382666980382808E-11    0.2615875779876653E-09