 title="result"
 variables="x","y","P","u","v","t","omega","psi","RES1","RES2","RES3","RES4"
zone,j= 49,i= 49,f=point
 -0.3210   0.6300    0.2527660077699206E-01    0.0000000000000000E+00    0.0000000000000000E+00   -0.5000000000000000E+00    0.0000000000000000E+00    0.0000000000000000E+00    0.0000000000000000E+00    0.0000000000000000E+00    0.0000000000000000E+00    0.0000000000000000E+00
 -0.3214   0.6290    0.2578242028043275E-01    0.0000000000000000E+00    0.0000000000000000E+00   -0.4954166716541081E+00    0.1298449052703386E-03    0.0000000000000000E+00    0.0000000000000000E+00    0.0000000000000000E+00    0.0000000000000000E+00    0.0000000000000000E+00
 -0.3223   0.6260    0.2726205551107997E-01    0.0000000000000000E+00    0.0000000000000000E+00   -0.4816887316533932E+00   -0.4268725803444775E-02    0.0000000000000000E+00    0.0000000000000000E+00    0.0000000000000000E+00    0.0000000000000000E+00    0.0000000000000000E+00
 -0.3240   0.6209    0.2964563230255630E-01    0.0000000000000000E+00    0.0000000000000000E+00   -0.4588969441059788E+00   -0.2589627584260466E-01    0.0000000000000000E+00    0.0000000000000000E+00    0.0000000000000000E+00    0.0000000000000000E+00    0.0000000000000000E+00
 -0.3263   0.6138    0.3284693860107756E-01    0.0000000000000000E+00    0.0000000000000000E+00   -0.4272261576903693E+00   -0.6933539556471681E-01    0.0000000000000000E+00    0.0000000000000000E+00    0.0000000000000000E+00    0.0000000000000000E+00    0.0000000000000000E+00
 -0.3292   0.6048    0.3671597240214031E-01    0.0000000000000000E+00    0.0000000000000000E+00   -0.3870443040715789E+00   -0.1281793121101092E+00    0.0000000000000000E+00    0.0000000000000000E+00    0.0000000000000000E+00    0.0000000000000000E+00    0.0000000000000000E+00
 -0.3328   0.5938    0.4102116199482644E-01    0.0000000000000000E+00    0.0000000000000000E+00   -0.3390122354638909E+00   -0.1908985561410069E+00    0.0000000000000000E+00    0.0000000000000000E+00    0.0000000000000000E+00    0.0000000000000000E+00    0.0000000000000000E+00
 -0.3370   0.5810    0.4545349466151687E-01    0.0000000000000000E+00    0.0000000000000000E+00   -0.2842074834297829E+00   -0.2453372775793684E+00    0.0000000000000000E+00    0.0000000000000000E+00    0.0000000000000000E+00    0.0000000000000000E+00    0.0000000000000000E+00
 -0.3417   0.5663    0.4964258927711655E-01    0.0000000000000000E+00    0.0000000000000000E+00   -0.2242276096787020E+00   -0.2831928129626223E+00    0.0000000000000000E+00    0.0000000000000000E+00    0.0000000000000000E+00    0.0000000000000000E+00    0.0000000000000000E+00
 -0.3471   0.5499    0.5318954344499914E-01    0.0000000000000000E+00    0.0000000000000000E+00   -0.1612263387933087E+00   -0.3044347362368638E+00    0.0000000000000000E+00    0.0000000000000000E+00    0.0000000000000000E+00    0.0000000000000000E+00    0.0000000000000000E+00
 -0.3529   0.5318    0.5571574503082701E-01    0.0000000000000000E+00    0.0000000000000000E+00   -0.9783822697436273E-01   -0.3208234614509973E+00    0.0000000000000000E+00    0.0000000000000000E+00    0.0000000000000000E+00    0.0000000000000000E+00    0.0000000000000000E+00
 -0.3594   0.5120    0.5692314043983790E-01    0.0000000000000000E+00    0.0000000000000000E+00   -0.3696942466050394E-01   -0.3557995989179807E+00    0.0000000000000000E+00    0.0000000000000000E+00    0.0000000000000000E+00    0.0000000000000000E+00    0.0000000000000000E+00
 -0.3663   0.4908    0.5664634251842640E-01    0.0000000000000000E+00    0.0000000000000000E+00    0.1853533699591688E-01   -0.4390520036529832E+00    0.0000000000000000E+00    0.0000000000000000E+00    0.0000000000000000E+00    0.0000000000000000E+00    0.0000000000000000E+00
 -0.3737   0.4680    0.5487475811826757E-01    0.0000000000000000E+00    0.0000000000000000E+00    0.6630683772741469E-01   -0.5978412743230556E+00    0.0000000000000000E+00    0.0000000000000000E+00    0.0000000000000000E+00    0.0000000000000000E+00    0.0000000000000000E+00
 -0.3815   0.4440    0.5173524035912983E-01    0.0000000000000000E+00    0.0000000000000000E+00    0.1048673707243728E+00   -0.8505345266541532E+00    0.0000000000000000E+00    0.0000000000000000E+00    0.0000000000000000E+00    0.0000000000000000E+00    0.0000000000000000E+00
 -0.3897   0.4187    0.4745015200025420E-01    0.0000000000000000E+00    0.0000000000000000E+00    0.1339243059754094E+00   -0.1206247971597809E+01    0.0000000000000000E+00    0.0000000000000000E+00    0.0000000000000000E+00    0.0000000000000000E+00    0.0000000000000000E+00
 -0.3983   0.3923    0.4229535355773638E-01    0.0000000000000000E+00    0.0000000000000000E+00    0.1543982935923222E+00   -0.1668835790300831E+01    0.0000000000000000E+00    0.0000000000000000E+00    0.0000000000000000E+00    0.0000000000000000E+00    0.0000000000000000E+00
 -0.4072   0.3648    0.3657360738508265E-01    0.0000000000000000E+00    0.0000000000000000E+00    0.1681168917883998E+00   -0.2240068120935361E+01    0.0000000000000000E+00    0.0000000000000000E+00    0.0000000000000000E+00    0.0000000000000000E+00    0.0000000000000000E+00
 -0.4164   0.3365    0.3060320281092530E-01    0.0000000000000000E+00    0.0000000000000000E+00    0.1772707440605894E+00   -0.2919044404394684E+01    0.0000000000000000E+00    0.0000000000000000E+00    0.0000000000000000E+00    0.0000000000000000E+00    0.0000000000000000E+00
 -0.4259   0.3074    0.2471550874360798E-01    0.0000000000000000E+00    0.0000000000000000E+00    0.1838686573670325E+00   -0.3699048695828322E+01    0.0000000000000000E+00    0.0000000000000000E+00    0.0000000000000000E+00    0.0000000000000000E+00    0.0000000000000000E+00
 -0.4355   0.2776    0.1925390645509246E-01    0.0000000000000000E+00    0.0000000000000000E+00    0.1894102510704193E+00   -0.4564605628595059E+01    0.0000000000000000E+00    0.0000000000000000E+00    0.0000000000000000E+00    0.0000000000000000E+00    0.0000000000000000E+00
 -0.4454   0.2473    0.1456711921825712E-01    0.0000000000000000E+00    0.0000000000000000E+00    0.1948356028906238E+00   -0.5490505356540543E+01    0.0000000000000000E+00    0.0000000000000000E+00    0.0000000000000000E+00    0.0000000000000000E+00    0.0000000000000000E+00
 -0.4554   0.2166    0.1099224262875014E-01    0.0000000000000000E+00    0.0000000000000000E+00    0.2006555082249392E+00   -0.6443020545355885E+01    0.0000000000000000E+00    0.0000000000000000E+00    0.0000000000000000E+00    0.0000000000000000E+00    0.0000000000000000E+00
 -0.4654   0.1856    0.8828555537067477E-02    0.0000000000000000E+00    0.0000000000000000E+00    0.2071239869661637E+00   -0.7382526827370646E+01    0.0000000000000000E+00    0.0000000000000000E+00    0.0000000000000000E+00    0.0000000000000000E+00    0.0000000000000000E+00
 -0.4755   0.1545    0.8307192275696301E-02    0.0000000000000000E+00    0.0000000000000000E+00    0.2143685743490721E+00   -0.8266352929051473E+01    0.0000000000000000E+00    0.0000000000000000E+00    0.0000000000000000E+00    0.0000000000000000E+00    0.0000000000000000E+00
 -0.4856   0.1234    0.9562204068123687E-02    0.0000000000000000E+00    0.0000000000000000E+00    0.2224619604772396E+00   -0.9050976573278589E+01    0.0000000000000000E+00    0.0000000000000000E+00    0.0000000000000000E+00    0.0000000000000000E+00    0.0000000000000000E+00
 -0.4957   0.0924    0.1260582976052453E-01    0.0000000000000000E+00    0.0000000000000000E+00    0.2314523297430555E+00   -0.9693368113959663E+01    0.0000000000000000E+00    0.0000000000000000E+00    0.0000000000000000E+00    0.0000000000000000E+00    0.0000000000000000E+00
 -0.5057   0.0617    0.1730895213340106E-01    0.0000000000000000E+00    0.0000000000000000E+00    0.2413726319809701E+00   -0.1015204588155782E+02    0.0000000000000000E+00    0.0000000000000000E+00    0.0000000000000000E+00    0.0000000000000000E+00    0.0000000000000000E+00
 -0.5155   0.0314    0.2338819588022252E-01    0.0000000000000000E+00    0.0000000000000000E+00    0.2522411297048716E+00   -0.1038882702137152E+02    0.0000000000000000E+00    0.0000000000000000E+00    0.0000000000000000E+00    0.0000000000000000E+00    0.0000000000000000E+00
 -0.5252   0.0017    0.3040434269459159E-01    0.0000000000000000E+00    0.0000000000000000E+00    0.2640588446272353E+00   -0.1037219910581566E+02    0.0000000000000000E+00    0.0000000000000000E+00    0.0000000000000000E+00    0.0000000000000000E+00    0.0000000000000000E+00
 -0.5347  -0.0275    0.3778004154645889E-01    0.0000000000000000E+00    0.0000000000000000E+00    0.2768062388006652E+00   -0.1008259074947362E+02    0.0000000000000000E+00    0.0000000000000000E+00    0.0000000000000000E+00    0.0000000000000000E+00    0.0000000000000000E+00
 -0.5439  -0.0558    0.4484524550578509E-01    0.0000000000000000E+00    0.0000000000000000E+00    0.2904402991425916E+00   -0.9518761019771418E+01    0.0000000000000000E+00    0.0000000000000000E+00    0.0000000000000000E+00    0.0000000000000000E+00    0.0000000000000000E+00
 -0.5528  -0.0833    0.5091321151194385E-01    0.0000000000000000E+00    0.0000000000000000E+00    0.3048927763359562E+00   -0.8703321553989991E+01    0.0000000000000000E+00    0.0000000000000000E+00    0.0000000000000000E+00    0.0000000000000000E+00    0.0000000000000000E+00
 -0.5614  -0.1097    0.5537821446491106E-01    0.0000000000000000E+00    0.0000000000000000E+00    0.3200699305083757E+00   -0.7684742516601453E+01    0.0000000000000000E+00    0.0000000000000000E+00    0.0000000000000000E+00    0.0000000000000000E+00    0.0000000000000000E+00
 -0.5696  -0.1350    0.5781270261308062E-01    0.0000000000000000E+00    0.0000000000000000E+00    0.3358535017689017E+00   -0.6533670224611910E+01    0.0000000000000000E+00    0.0000000000000000E+00    0.0000000000000000E+00    0.0000000000000000E+00    0.0000000000000000E+00
 -0.5774  -0.1590    0.5803478968168931E-01    0.0000000000000000E+00    0.0000000000000000E+00    0.3521018455691373E+00   -0.5333314767792299E+01    0.0000000000000000E+00    0.0000000000000000E+00    0.0000000000000000E+00    0.0000000000000000E+00    0.0000000000000000E+00
 -0.5848  -0.1817    0.5612365412065805E-01    0.0000000000000000E+00    0.0000000000000000E+00    0.3686496484942016E+00   -0.4166202136189679E+01    0.0000000000000000E+00    0.0000000000000000E+00    0.0000000000000000E+00    0.0000000000000000E+00    0.0000000000000000E+00
 -0.5917  -0.2030    0.5237929331357923E-01    0.0000000000000000E+00    0.0000000000000000E+00    0.3853049539653101E+00   -0.3101399953795625E+01    0.0000000000000000E+00    0.0000000000000000E+00    0.0000000000000000E+00    0.0000000000000000E+00    0.0000000000000000E+00
 -0.5981  -0.2228    0.4724422529514689E-01    0.0000000000000000E+00    0.0000000000000000E+00    0.4018437999506927E+00   -0.2186088156902428E+01    0.0000000000000000E+00    0.0000000000000000E+00    0.0000000000000000E+00    0.0000000000000000E+00    0.0000000000000000E+00
 -0.6040  -0.2409    0.4121587452036361E-01    0.0000000000000000E+00    0.0000000000000000E+00    0.4180053240793518E+00   -0.1443371744665037E+01    0.0000000000000000E+00    0.0000000000000000E+00    0.0000000000000000E+00    0.0000000000000000E+00    0.0000000000000000E+00
 -0.6093  -0.2573    0.3477528073390009E-01    0.0000000000000000E+00    0.0000000000000000E+00    0.4334923905263404E+00   -0.8755233974533526E+00    0.0000000000000000E+00    0.0000000000000000E+00    0.0000000000000000E+00    0.0000000000000000E+00    0.0000000000000000E+00
 -0.6141  -0.2720    0.2834469525681839E-01    0.0000000000000000E+00    0.0000000000000000E+00    0.4479826715247548E+00   -0.4701507514153074E+00    0.0000000000000000E+00    0.0000000000000000E+00    0.0000000000000000E+00    0.0000000000000000E+00    0.0000000000000000E+00
 -0.6183  -0.2848    0.2227278524371527E-01    0.0000000000000000E+00    0.0000000000000000E+00    0.4611514938438745E+00   -0.2062064006924895E+00    0.0000000000000000E+00    0.0000000000000000E+00    0.0000000000000000E+00    0.0000000000000000E+00    0.0000000000000000E+00
 -0.6218  -0.2958    0.1683665753810405E-01    0.0000000000000000E+00    0.0000000000000000E+00    0.4727017531309373E+00   -0.5784968335407705E-01    0.0000000000000000E+00    0.0000000000000000E+00    0.0000000000000000E+00    0.0000000000000000E+00    0.0000000000000000E+00
 -0.6248  -0.3048    0.1224706903364261E-01    0.0000000000000000E+00    0.0000000000000000E+00    0.4823912294342371E+00    0.4575270745145917E-02    0.0000000000000000E+00    0.0000000000000000E+00    0.0000000000000000E+00    0.0000000000000000E+00    0.0000000000000000E+00
 -0.6271  -0.3119    0.8646242865912540E-02    0.0000000000000000E+00    0.0000000000000000E+00    0.4900473448214696E+00    0.1418463202998513E-01    0.0000000000000000E+00    0.0000000000000000E+00    0.0000000000000000E+00    0.0000000000000000E+00    0.0000000000000000E+00
 -0.6287  -0.3170    0.6098021003804034E-02    0.0000000000000000E+00    0.0000000000000000E+00    0.4955648077242522E+00    0.4892076936048836E-02    0.0000000000000000E+00    0.0000000000000000E+00    0.0000000000000000E+00    0.0000000000000000E+00    0.0000000000000000E+00
 -0.6297  -0.3200    0.4584220032156559E-02    0.0000000000000000E+00    0.0000000000000000E+00    0.4988897874917742E+00   -0.8129631620610241E-04    0.0000000000000000E+00    0.0000000000000000E+00    0.0000000000000000E+00    0.0000000000000000E+00    0.0000000000000000E+00
 -0.6300  -0.3210    0.4078696914357313E-02    0.0000000000000000E+00    0.0000000000000000E+00    0.5000000000000000E+00    0.0000000000000000E+00    0.0000000000000000E+00    0.0000000000000000E+00    0.0000000000000000E+00    0.0000000000000000E+00    0.0000000000000000E+00
 -0.3200   0.6297    0.2544292269821698E-01    0.0000000000000000E+00    0.0000000000000000E+00   -0.5000000000000000E+00    0.1297895387008431E-03    0.0000000000000000E+00    0.0000000000000000E+00    0.0000000000000000E+00    0.0000000000000000E+00    0.0000000000000000E+00
 -0.3203   0.6287    0.2594798562969744E-01    0.1177409186358761E-06   -0.1177590285818376E-06   -0.4954165506829816E+00   -0.5825127918808545E-03   -0.7301376066146002E-10    0.1447285108110204E-08   -0.9366606882471595E-13   -0.1006993967378467E-12   -0.5794079951070008E-11
 -0.3213   0.6256    0.2742812649769665E-01    0.5083108592438592E-05   -0.1490867827880341E-05   -0.4816882436006493E+00   -0.5506706299754180E-02   -0.2601782691013639E-08    0.1446818775896475E-08   -0.1210852165062226E-12   -0.1562396045873271E-12   -0.2286939084286677E-10
 -0.3230   0.6206    0.2981121665032629E-01    0.2688652226370749E-04   -0.2851027717819769E-05   -0.4588958204528922E+00   -0.2444902034319255E-01   -0.1457765086480622E-07    0.1447300087935310E-08   -0.1473187891121164E-12   -0.1230821000675064E-12   -0.5084518136383442E-10
 -0.3253   0.6135    0.3300533853629235E-01    0.7111390655654229E-04   -0.3459406196868458E-05   -0.4272240959044278E+00   -0.6363645492859496E-01   -0.3859420861738297E-07    0.1449263781032328E-08   -0.5559320365167153E-12   -0.8342805613015258E-13   -0.8916834978722754E-10
 -0.3282   0.6045    0.3686057997182350E-01    0.1320199775571214E-03   -0.3372170657126756E-05   -0.3870409862732205E+00   -0.1185354778761661E+00   -0.7159496839351952E-07    0.1452040212894523E-08   -0.1695716483895993E-11   -0.7832796911078077E-13   -0.1349065061051480E-09
 -0.3318   0.5935    0.4114688497100658E-01    0.1978271952835326E-03   -0.2737695180233274E-05   -0.3390073718697087E+00   -0.1787590662356581E+00   -0.1070350639685027E-06    0.1454411689173762E-08   -0.3677832344228804E-11   -0.6559162935015905E-13   -0.1838084476291080E-09
 -0.3359   0.5807    0.4555683267013264E-01    0.2558798013819756E-03   -0.1872934775352551E-05   -0.2842008730821886E+00   -0.2327658691006965E+00   -0.1381654310863188E-06    0.1454917515891080E-08   -0.6377825351178146E-11   -0.1243276315232578E-13   -0.2248737654420019E-09
 -0.3407   0.5660    0.4972202286589756E-01    0.2974273007073665E-03   -0.1037012506921106E-05   -0.2242192056160208E+00   -0.2725370233281658E+00   -0.1602118149708715E-06    0.1452299821635278E-08   -0.9468571759985167E-11   -0.5214318560264886E-13   -0.2415763075691579E-09
 -0.3460   0.5496    0.5324574757235565E-01    0.3223617692540708E-03   -0.5524478983720860E-06   -0.1612162977906675E+00   -0.2978787804955368E+00   -0.1731785052993656E-06    0.1445495842597108E-08   -0.1255198722738271E-10   -0.7171910634817813E-13   -0.2099436735569782E-09
 -0.3519   0.5314    0.5575155069249605E-01    0.3429373220279212E-03   -0.6611161541783756E-06   -0.9782692610592102E-01   -0.3199364905750827E+00   -0.1836472296888848E-06    0.1433391334446088E-08   -0.1526677113720953E-10   -0.1259326844194053E-12   -0.1014928002751603E-09
 -0.3583   0.5117    0.5694291149643196E-01    0.3837033756481434E-03   -0.1491356573917628E-05   -0.3695744046214294E-01   -0.3611191238846010E+00   -0.2048831471972766E-06    0.1414426558082188E-08   -0.1738936425410564E-10   -0.1091791587692903E-12    0.1111865183256455E-09
 -0.3653   0.4904    0.5665493743584275E-01    0.4758592533833416E-03   -0.2940760744717141E-05    0.1854728001166316E-01   -0.4500313847981575E+00   -0.2536686905650315E-06    0.1386176838244491E-08   -0.1882984740353422E-10   -0.1770337348938611E-12    0.4467638342608993E-09
 -0.3726   0.4677    0.5487659378085474E-01    0.6481786304828398E-03   -0.4769203112341475E-05    0.6631794938844322E-01   -0.6131621270621124E+00   -0.3454944293197153E-06    0.1345291111148894E-08   -0.1960470674688963E-10   -0.2045898173097527E-12    0.9070643541830847E-09
 -0.3805   0.4437    0.5173392982619477E-01    0.9201759916296242E-03   -0.6707522492243034E-05    0.1048769199972965E+00   -0.8686088312541960E+00   -0.4908208694783428E-06    0.1287757657453259E-08   -0.1973719104819693E-10   -0.2753283712131349E-12    0.1470475560760853E-08
 -0.3887   0.4184    0.4744865751563666E-01    0.1301619827174670E-02   -0.8611272842711023E-05    0.1339317802929954E+00   -0.1225504302092850E+01   -0.6948836520208566E-06    0.1209868791957058E-08   -0.1916363595588777E-10   -0.3182593077966089E-12    0.2090624152961684E-08
 -0.3973   0.3919    0.4229614916664863E-01    0.1796616862371841E-02   -0.1043912072712076E-04    0.1544035322167406E+00   -0.1687670720999005E+01   -0.9598792811440623E-06    0.1109257800196994E-08   -0.1770769642028824E-10   -0.3853237173778723E-12    0.2704424011124029E-08
 -0.4062   0.3645    0.3657854354963459E-01    0.2406905104522400E-02   -0.1219274209079003E-04    0.1681201079385713E+00   -0.2256583190340760E+01   -0.1286768837656301E-05    0.9858479796398534E-09   -0.1508696639840323E-10   -0.4576478085382973E-12    0.3247704109116123E-08
 -0.4154   0.3362    0.3061316568384316E-01    0.3131243113731385E-02   -0.1382052422230427E-04    0.1772724064795580E+00   -0.2930822925515643E+01   -0.1674936543129533E-05    0.8422132505292446E-09   -0.1094814863766835E-10   -0.5107581024788033E-12    0.3670695691848636E-08
 -0.4248   0.3070    0.2473019382411298E-01    0.3962128281789582E-02   -0.1521990391355249E-04    0.1838692982854041E+00   -0.3703088121102856E+01   -0.2120420994263757E-05    0.6833752522195091E-09   -0.4925027399793613E-11   -0.5937333957817259E-12    0.3950840975121966E-08
 -0.4345   0.2773    0.1927182462492677E-01    0.4882739155960362E-02   -0.1624888503473964E-04    0.1894103088266272E+00   -0.4557427097359619E+01   -0.2614266662084700E-05    0.5164886608677310E-09    0.3270071713412648E-11   -0.6594724766273430E-12    0.4092186518762702E-08
 -0.4444   0.2469    0.1458582591732937E-01    0.5865965669446777E-02   -0.1677956151708163E-04    0.1948353603982753E+00   -0.5468403046407607E+01   -0.3141979514205042E-05    0.3503309170538316E-09    0.1377728486851026E-10   -0.6864647739135421E-12    0.4116404053993578E-08
 -0.4543   0.2162    0.1100863984710505E-01    0.6875757558078508E-02   -0.1671136435226304E-04    0.2006551125251493E+00   -0.6402392388447342E+01   -0.3684259292419007E-05    0.1947792691026073E-09    0.2643908703081621E-10   -0.7453204720064832E-12    0.4051895622411011E-08
 -0.4644   0.1853    0.8839189558844392E-02    0.7869940135638400E-02   -0.1599069601876892E-04    0.2071234994862132E+00   -0.7320230299794915E+01   -0.4218479769371676E-05    0.5997670068924599E-10    0.4077282955705641E-10   -0.7460004836090661E-12    0.3926067788581622E-08
 -0.4745   0.1542    0.8308437191015157E-02    0.8803252113118332E-02   -0.1458901140625722E-04    0.2143680142053491E+00   -0.8180027847524585E+01   -0.4720348423133710E-05   -0.4442700374251984E-10    0.5598632668579739E-10   -0.7256001355315789E-12    0.3760660990947962E-08
 -0.4846   0.1231    0.9550354188626996E-02    0.9629674130750533E-02   -0.1249576370416124E-04    0.2224613298304045E+00   -0.8939336175943822E+01   -0.5165119325790552E-05   -0.1104631316972693E-09    0.7105344090874155E-10   -0.6501396643265878E-12    0.3571514011618815E-08
 -0.4947   0.0921    0.1257709826202685E-01    0.1030385400545378E-01   -0.9695968090320301E-05    0.2314516254657025E+00   -0.9556453549047230E+01   -0.5528402249925277E-05   -0.1330384240272320E-09    0.8478223678665131E-10   -0.5496297861284916E-12    0.3369736909647481E-08
 -0.5047   0.0614    0.1725950430371661E-01    0.1078223012561218E-01   -0.6182252763271018E-05    0.2413718503440894E+00   -0.9991483206885867E+01   -0.5786714696729903E-05   -0.1107305202391329E-09    0.9601397454872540E-10   -0.4313459311955370E-12    0.3162600103676083E-08
 -0.5145   0.0311    0.2331426556222185E-01    0.1102489202879037E-01   -0.1968131798326668E-05    0.2522402682670650E+00   -0.1020804199684236E+02   -0.5918537808113757E-05   -0.4652706301830345E-10    0.1036341013005426E-09   -0.2672861931785064E-12    0.2955425895331820E-08
 -0.5242   0.0013    0.3030256171537293E-01    0.1099913574958610E-01    0.2866376193424850E-05    0.2640579030464151E+00   -0.1017655026673024E+02   -0.5906164021291713E-05    0.5211278110428541E-10    0.1067738675253338E-09   -0.1266660387688745E-12    0.2750809257462405E-08
 -0.5336  -0.0278    0.3764794224409410E-01    0.1068498846336172E-01    0.8141450513133154E-05    0.2768052189971943E+00   -0.9879260451612112E+01   -0.5738748676946611E-05    0.1735969683974714E-09    0.1048728881514194E-09    0.1312006059350779E-12    0.2551061336134031E-08
 -0.5428  -0.0561    0.4468192057745463E-01    0.1008185969100882E-01    0.1354476684259658E-04    0.2904392047730743E+00   -0.9316318611527025E+01   -0.5415821190657704E-05    0.3035781834248574E-09    0.9795331212814062E-10    0.2962213807577996E-12    0.2355772450376992E-08
 -0.5518  -0.0836    0.5071988211088318E-01    0.9214235667829473E-02    0.1864969408527245E-04    0.3048916115292384E+00   -0.8510851541452983E+01   -0.4950464858644300E-05    0.4270331796507598E-09    0.8653106009504086E-10    0.4847927614903824E-12    0.2165761353242757E-08
 -0.5604  -0.1100    0.5515853782374981E-01    0.8133657604242476E-02    0.2296920576817861E-04    0.3200686980976892E+00   -0.7510689148387795E+01   -0.4370300811540252E-05    0.5309247694262886E-09    0.7184458583608944E-10    0.6190048473797560E-12    0.1979003289367953E-08
 -0.5686  -0.1353    0.5757253802221135E-01    0.6914757211083412E-02    0.2606333354428011E-04    0.3358522017280332E+00   -0.6384602241606506E+01   -0.3715488624368644E-05    0.6066191021725231E-09    0.5553346671405279E-10    0.7691208780968850E-12    0.1795260820211531E-08
 -0.5764  -0.1594    0.5778147732285602E-01    0.5645133108780949E-02    0.2764172769149057E-04    0.3521004748121807E+00   -0.5213045267880993E+01   -0.3033142796388803E-05    0.6513837802479827E-09    0.3941696968823294E-10    0.8621992009238966E-12    0.1612596407102318E-08
 -0.5838  -0.1821    0.5586489237292482E-01    0.4411492252492736E-02    0.2764056552884872E-04    0.3686482033080989E+00   -0.4075463206140259E+01   -0.2370010973881387E-05    0.6681055778057221E-09    0.2509767393910067E-10    0.8519851490973451E-12    0.1431040697399966E-08
 -0.5907  -0.2033    0.5212206900670092E-01    0.3286326165475920E-02    0.2621857572626903E-04    0.3853034357392817E+00   -0.3038233663291212E+01   -0.1765102686847098E-05    0.6636404481508151E-09    0.1362518431413662E-10    0.8379547056236447E-12    0.1250359283125335E-08
 -0.5971  -0.2231    0.4699400707426325E-01    0.2319144366559611E-02    0.2369603122500372E-04    0.4018422233932948E+00   -0.2146649344236871E+01   -0.1245155916726333E-05    0.6463260690536821E-09    0.5420955351276291E-11    0.8081452174124593E-12    0.1071748842451647E-08
 -0.6030  -0.2412    0.4097639601672667E-01    0.1534204991055446E-02    0.2044515668734707E-04    0.4180037251160498E+00   -0.1422949315749872E+01   -0.8231703136132138E-06    0.6238678393333252E-09    0.3074693277760332E-12    0.7617101394075121E-12    0.8969729854702013E-09
 -0.6083  -0.2576    0.3454871268786582E-01    0.9339035803860156E-03    0.1679886576429678E-04    0.4334908295724320E+00   -0.8693063174356296E+00   -0.5005184795016706E-06    0.6018796086526557E-09   -0.2303556650984362E-11    0.7224915110626284E-12    0.7287464156430223E-09
 -0.6131  -0.2723    0.2813218996384493E-01    0.5051777223707160E-03    0.1298859824048041E-04    0.4479812281563455E+00   -0.4737498682730232E+00   -0.2700712262714523E-06    0.5836366945288773E-09   -0.3150992487765958E-11    0.7017580960777536E-12    0.5711793798351961E-09
 -0.6173  -0.2852    0.2207484441499866E-01    0.2257548488430994E-03    0.9160607671202213E-05    0.4611502517206720E+00   -0.2156679367614480E+00   -0.1199855474832208E-06    0.5703182821836794E-09   -0.2962977085907426E-11    0.6868186575026414E-12    0.4271548045831075E-09
 -0.6208  -0.2961    0.1665324017298932E-01    0.6812521359400597E-04    0.5444520717541093E-05    0.4727007786090774E+00   -0.6957542803762087E-01   -0.3535146432200710E-07    0.5617068372931744E-09   -0.2328876674839719E-11    0.6642741912088468E-12    0.3006002807781627E-09
 -0.6238  -0.3051    0.1207684642393195E-01    0.6505114835178508E-06    0.2119116051552255E-05    0.4823905515138220E+00   -0.5909374620885131E-02    0.5830839857382398E-09    0.5565955543684886E-09   -0.1672061794577573E-11    0.6805285501787495E-12    0.1942280407687957E-09
 -0.6260  -0.3122    0.8485249600345586E-02   -0.1191411200943123E-04   -0.3130271899737855E-06    0.4900469453193798E+00    0.7898659836958392E-02    0.7012000533938079E-08    0.5535329960777539E-09   -0.1210750250058013E-11    0.6675121737024690E-12    0.1096652985435598E-09
 -0.6277  -0.3173    0.5938122986443659E-02   -0.4645295217786050E-05   -0.1150533531367400E-05    0.4955646269040836E+00    0.3863864014633958E-02    0.2522152157363408E-08    0.5505475782294905E-09   -0.9610875463528235E-12    0.7078612869471090E-12    0.4867321975153549E-10
 -0.6287  -0.3203    0.4421976905771389E-02   -0.1726267716490870E-06   -0.1727614426019870E-06    0.4988897421054203E+00    0.6483350799578556E-03    0.1472830686202396E-09    0.5472701795862164E-09   -0.4945584957186111E-12    0.5123818036523176E-12    0.1247273481328956E-10
 -0.6290  -0.3214    0.3916269770792907E-02    0.0000000000000000E+00    0.0000000000000000E+00    0.5000000000000000E+00   -0.8085177957908819E-04    0.0000000000000000E+00    0.0000000000000000E+00    0.0000000000000000E+00    0.0000000000000000E+00    0.0000000000000000E+00
 -0.3170   0.6287    0.2594891585299541E-01    0.0000000000000000E+00    0.0000000000000000E+00   -0.5000000000000000E+00   -0.4266973930690877E-02    0.0000000000000000E+00    0.0000000000000000E+00    0.0000000000000000E+00    0.0000000000000000E+00    0.0000000000000000E+00
 -0.3173   0.6277    0.2644893439926172E-01    0.1489890089486524E-05   -0.5081608003972730E-05   -0.4954147553032172E+00   -0.5505465789664423E-02   -0.2600886782077806E-08    0.1446594352551983E-08   -0.1382114637581838E-12   -0.2394870326355436E-12   -0.5702186444377089E-11
 -0.3183   0.6246    0.2792225992023249E-01    0.2156062181709954E-04   -0.2156463944505114E-04   -0.4816810210525515E+00   -0.9511030740340026E-02   -0.4565523098786533E-07    0.1446505767596640E-08   -0.3704408741561638E-12   -0.4851345020151498E-12   -0.2270099299511719E-10
 -0.3199   0.6196    0.3029791378460260E-01    0.9658663592557247E-04   -0.4068661815278900E-04   -0.4588792926536710E+00   -0.2158901778348419E-01   -0.2170624867417463E-06    0.1447012832472838E-08   -0.8618956243156006E-12   -0.3011792204521413E-12   -0.5069107980593124E-10
 -0.3222   0.6125    0.3347143198855816E-01    0.2505117900226101E-03   -0.5117743263158748E-04   -0.4271939456731889E+00   -0.4942697593271845E-01   -0.5669561248550167E-06    0.1448657603597692E-08   -0.2669663101695363E-11    0.1594020054840328E-12   -0.8890127349558963E-10
 -0.3252   0.6035    0.3728847332147256E-01    0.4709988709868521E-03   -0.5097215432447895E-04   -0.3869926133432607E+00   -0.9327768551538468E-01   -0.1059820013615876E-05    0.1451074056052493E-08   -0.7057601031368321E-11    0.6555572057420633E-12   -0.1351519209047414E-09
 -0.3287   0.5925    0.4152140216288017E-01    0.7187606209914568E-03   -0.4266663746946017E-04   -0.3389364672764922E+00   -0.1462518814674766E+00   -0.1603938572674058E-05    0.1453181637522949E-08   -0.1455261605665115E-10    0.9956879071237879E-12   -0.1837909373303415E-09
 -0.3329   0.5797    0.4586715922481016E-01    0.9478711964669623E-03   -0.3028816314178953E-04   -0.2841043115270045E+00   -0.1988830840370159E+00   -0.2096714589909035E-05    0.1453616690558213E-08   -0.2478042424036708E-10    0.1103265048763014E-11   -0.2250095249012318E-09
 -0.3377   0.5650    0.4996303195060663E-01    0.1125292239948414E-02   -0.1823276498515518E-04   -0.2240960631244154E+00   -0.2440123778417899E+00   -0.2465498586323296E-05    0.1451098808821771E-08   -0.3654692173893359E-10    0.9967408842737058E-12   -0.2416648131609023E-09