 title="result"
 variables="x","y","P","u","v","t","omega","psi","RES1","RES2","RES3","RES4"
zone,j= 49,i= 49,f=point
 -0.1886   0.6815    0.2410334292302561E-01    0.0000000000000000E+00    0.0000000000000000E+00   -0.5000000000000000E+00    0.0000000000000000E+00    0.0000000000000000E+00    0.0000000000000000E+00    0.0000000000000000E+00    0.0000000000000000E+00    0.0000000000000000E+00
 -0.1891   0.6806    0.2456678849765791E-01    0.0000000000000000E+00    0.0000000000000000E+00   -0.4948932823663021E+00    0.5301077606610697E-03    0.0000000000000000E+00    0.0000000000000000E+00    0.0000000000000000E+00    0.0000000000000000E+00    0.0000000000000000E+00
 -0.1907   0.6778    0.2589722290937333E-01    0.0000000000000000E+00    0.0000000000000000E+00   -0.4795982401337694E+00   -0.4825201405600672E-02    0.0000000000000000E+00    0.0000000000000000E+00    0.0000000000000000E+00    0.0000000000000000E+00    0.0000000000000000E+00
 -0.1933   0.6731    0.2801283395914960E-01    0.0000000000000000E+00    0.0000000000000000E+00   -0.4542102513473404E+00   -0.4777844752990366E-01    0.0000000000000000E+00    0.0000000000000000E+00    0.0000000000000000E+00    0.0000000000000000E+00    0.0000000000000000E+00
 -0.1970   0.6667    0.3089032142849696E-01    0.0000000000000000E+00    0.0000000000000000E+00   -0.4189606177213305E+00   -0.1522293462533345E+00    0.0000000000000000E+00    0.0000000000000000E+00    0.0000000000000000E+00    0.0000000000000000E+00    0.0000000000000000E+00
 -0.2017   0.6584    0.3448437844436100E-01    0.0000000000000000E+00    0.0000000000000000E+00   -0.3743414748500062E+00   -0.3137799461084443E+00    0.0000000000000000E+00    0.0000000000000000E+00    0.0000000000000000E+00    0.0000000000000000E+00    0.0000000000000000E+00
 -0.2074   0.6484    0.3865382569441626E-01    0.0000000000000000E+00    0.0000000000000000E+00   -0.3212889451226895E+00   -0.5058054394754448E+00    0.0000000000000000E+00    0.0000000000000000E+00    0.0000000000000000E+00    0.0000000000000000E+00    0.0000000000000000E+00
 -0.2140   0.6366    0.4313610273255343E-01    0.0000000000000000E+00    0.0000000000000000E+00   -0.2613765909502081E+00   -0.6900906609547763E+00    0.0000000000000000E+00    0.0000000000000000E+00    0.0000000000000000E+00    0.0000000000000000E+00    0.0000000000000000E+00
 -0.2216   0.6232    0.4755082463048828E-01    0.0000000000000000E+00    0.0000000000000000E+00   -0.1969197621800193E+00   -0.8300295144150156E+00    0.0000000000000000E+00    0.0000000000000000E+00    0.0000000000000000E+00    0.0000000000000000E+00    0.0000000000000000E+00
 -0.2301   0.6082    0.5144341097576720E-01    0.0000000000000000E+00    0.0000000000000000E+00   -0.1308840780048132E+00   -0.9037707276623438E+00    0.0000000000000000E+00    0.0000000000000000E+00    0.0000000000000000E+00    0.0000000000000000E+00    0.0000000000000000E+00
 -0.2395   0.5916    0.5435809702263078E-01    0.0000000000000000E+00    0.0000000000000000E+00   -0.6656118862836806E-01   -0.9143647791546335E+00    0.0000000000000000E+00    0.0000000000000000E+00    0.0000000000000000E+00    0.0000000000000000E+00    0.0000000000000000E+00
 -0.2498   0.5735    0.5593121357436136E-01    0.0000000000000000E+00    0.0000000000000000E+00   -0.7092687264948451E-02   -0.8918649071707199E+00    0.0000000000000000E+00    0.0000000000000000E+00    0.0000000000000000E+00    0.0000000000000000E+00    0.0000000000000000E+00
 -0.2608   0.5541    0.5596964469198232E-01    0.0000000000000000E+00    0.0000000000000000E+00    0.4499986772820496E-01   -0.8839944580432706E+00    0.0000000000000000E+00    0.0000000000000000E+00    0.0000000000000000E+00    0.0000000000000000E+00    0.0000000000000000E+00
 -0.2725   0.5333    0.5447955065668700E-01    0.0000000000000000E+00    0.0000000000000000E+00    0.8814441440637956E-01   -0.9388853547334144E+00    0.0000000000000000E+00    0.0000000000000000E+00    0.0000000000000000E+00    0.0000000000000000E+00    0.0000000000000000E+00
 -0.2850   0.5113    0.5162968883982853E-01    0.0000000000000000E+00    0.0000000000000000E+00    0.1218568032983040E+00   -0.1090136670124780E+01    0.0000000000000000E+00    0.0000000000000000E+00    0.0000000000000000E+00    0.0000000000000000E+00    0.0000000000000000E+00
 -0.2981   0.4881    0.4767905941416917E-01    0.0000000000000000E+00    0.0000000000000000E+00    0.1466956483610166E+00   -0.1352959938850394E+01    0.0000000000000000E+00    0.0000000000000000E+00    0.0000000000000000E+00    0.0000000000000000E+00    0.0000000000000000E+00
 -0.3118   0.4640    0.4291374889462449E-01    0.0000000000000000E+00    0.0000000000000000E+00    0.1640504278082563E+00   -0.1730187394155976E+01    0.0000000000000000E+00    0.0000000000000000E+00    0.0000000000000000E+00    0.0000000000000000E+00    0.0000000000000000E+00
 -0.3260   0.4389    0.3761848859755703E-01    0.0000000000000000E+00    0.0000000000000000E+00    0.1757918837775030E+00   -0.2219785172734726E+01    0.0000000000000000E+00    0.0000000000000000E+00    0.0000000000000000E+00    0.0000000000000000E+00    0.0000000000000000E+00
 -0.3407   0.4129    0.3207480426053254E-01    0.0000000000000000E+00    0.0000000000000000E+00    0.1838629972930483E+00   -0.2817720123624654E+01    0.0000000000000000E+00    0.0000000000000000E+00    0.0000000000000000E+00    0.0000000000000000E+00    0.0000000000000000E+00
 -0.3558   0.3863    0.2656893866395198E-01    0.0000000000000000E+00    0.0000000000000000E+00    0.1899338971299099E+00   -0.3516567767749374E+01    0.0000000000000000E+00    0.0000000000000000E+00    0.0000000000000000E+00    0.0000000000000000E+00    0.0000000000000000E+00
 -0.3713   0.3590    0.2139743116944891E-01    0.0000000000000000E+00    0.0000000000000000E+00    0.1952222539355501E+00   -0.4303089097518729E+01    0.0000000000000000E+00    0.0000000000000000E+00    0.0000000000000000E+00    0.0000000000000000E+00    0.0000000000000000E+00
 -0.3870   0.3313    0.1686595366163829E-01    0.0000000000000000E+00    0.0000000000000000E+00    0.2004937690579196E+00   -0.5157038008414475E+01    0.0000000000000000E+00    0.0000000000000000E+00    0.0000000000000000E+00    0.0000000000000000E+00    0.0000000000000000E+00
 -0.4029   0.3032    0.1327884189480259E-01    0.0000000000000000E+00    0.0000000000000000E+00    0.2061743034871321E+00   -0.6051614377132562E+01    0.0000000000000000E+00    0.0000000000000000E+00    0.0000000000000000E+00    0.0000000000000000E+00    0.0000000000000000E+00
 -0.4189   0.2749    0.1092085150432477E-01    0.0000000000000000E+00    0.0000000000000000E+00    0.2124842393633441E+00   -0.6955055699102861E+01    0.0000000000000000E+00    0.0000000000000000E+00    0.0000000000000000E+00    0.0000000000000000E+00    0.0000000000000000E+00
 -0.4350   0.2464    0.1003438573693623E-01    0.0000000000000000E+00    0.0000000000000000E+00    0.2195399081628687E+00   -0.7832433327179485E+01    0.0000000000000000E+00    0.0000000000000000E+00    0.0000000000000000E+00    0.0000000000000000E+00    0.0000000000000000E+00
 -0.4512   0.2180    0.1079630496366241E-01    0.0000000000000000E+00    0.0000000000000000E+00    0.2274108736692042E+00   -0.8646901260436263E+01    0.0000000000000000E+00    0.0000000000000000E+00    0.0000000000000000E+00    0.0000000000000000E+00    0.0000000000000000E+00
 -0.4672   0.1897    0.1329555283518576E-01    0.0000000000000000E+00    0.0000000000000000E+00    0.2361451664972502E+00   -0.9360082538433034E+01    0.0000000000000000E+00    0.0000000000000000E+00    0.0000000000000000E+00    0.0000000000000000E+00    0.0000000000000000E+00
 -0.4831   0.1616    0.1751141848977526E-01    0.0000000000000000E+00    0.0000000000000000E+00    0.2457773561683693E+00   -0.9932014312605414E+01    0.0000000000000000E+00    0.0000000000000000E+00    0.0000000000000000E+00    0.0000000000000000E+00    0.0000000000000000E+00
 -0.4988   0.1339    0.2329192286490477E-01    0.0000000000000000E+00    0.0000000000000000E+00    0.2563290289683146E+00   -0.1032156709144238E+02    0.0000000000000000E+00    0.0000000000000000E+00    0.0000000000000000E+00    0.0000000000000000E+00    0.0000000000000000E+00
 -0.5143   0.1066    0.3033544503462042E-01    0.0000000000000000E+00    0.0000000000000000E+00    0.2678062501593427E+00   -0.1048853363030686E+02    0.0000000000000000E+00    0.0000000000000000E+00    0.0000000000000000E+00    0.0000000000000000E+00    0.0000000000000000E+00
 -0.5294   0.0800    0.3818330609709759E-01    0.0000000000000000E+00    0.0000000000000000E+00    0.2801960044543725E+00   -0.1039824184724021E+02    0.0000000000000000E+00    0.0000000000000000E+00    0.0000000000000000E+00    0.0000000000000000E+00    0.0000000000000000E+00
 -0.5440   0.0540    0.4623551212749682E-01    0.0000000000000000E+00    0.0000000000000000E+00    0.2934626992346754E+00   -0.1002874053776230E+02    0.0000000000000000E+00    0.0000000000000000E+00    0.0000000000000000E+00    0.0000000000000000E+00    0.0000000000000000E+00
 -0.5583   0.0289    0.5380088855970534E-01    0.0000000000000000E+00    0.0000000000000000E+00    0.3075455626425043E+00   -0.9379156291435706E+01    0.0000000000000000E+00    0.0000000000000000E+00    0.0000000000000000E+00    0.0000000000000000E+00    0.0000000000000000E+00
 -0.5720   0.0048    0.6018429587716552E-01    0.0000000000000000E+00    0.0000000000000000E+00    0.3223575403633116E+00   -0.8476443828236745E+01    0.0000000000000000E+00    0.0000000000000000E+00    0.0000000000000000E+00    0.0000000000000000E+00    0.0000000000000000E+00
 -0.5851  -0.0184    0.6479725671286751E-01    0.0000000000000000E+00    0.0000000000000000E+00    0.3377857838676194E+00   -0.7377061977265734E+01    0.0000000000000000E+00    0.0000000000000000E+00    0.0000000000000000E+00    0.0000000000000000E+00    0.0000000000000000E+00
 -0.5975  -0.0404    0.6726211352946629E-01    0.0000000000000000E+00    0.0000000000000000E+00    0.3536930114560747E+00   -0.6161279568036117E+01    0.0000000000000000E+00    0.0000000000000000E+00    0.0000000000000000E+00    0.0000000000000000E+00    0.0000000000000000E+00
 -0.6093  -0.0612    0.6747461327749314E-01    0.0000000000000000E+00    0.0000000000000000E+00    0.3699182132929736E+00   -0.4920546994186231E+01    0.0000000000000000E+00    0.0000000000000000E+00    0.0000000000000000E+00    0.0000000000000000E+00    0.0000000000000000E+00
 -0.6203  -0.0806    0.6560274554696836E-01    0.0000000000000000E+00    0.0000000000000000E+00    0.3862749836259077E+00   -0.3741676166364812E+01    0.0000000000000000E+00    0.0000000000000000E+00    0.0000000000000000E+00    0.0000000000000000E+00    0.0000000000000000E+00
 -0.6306  -0.0987    0.6202546575085840E-01    0.0000000000000000E+00    0.0000000000000000E+00    0.4025468671590460E+00   -0.2693049264796908E+01    0.0000000000000000E+00    0.0000000000000000E+00    0.0000000000000000E+00    0.0000000000000000E+00    0.0000000000000000E+00
 -0.6400  -0.1153    0.5723814485895209E-01    0.0000000000000000E+00    0.0000000000000000E+00    0.4184816475491051E+00   -0.1817116320567875E+01    0.0000000000000000E+00    0.0000000000000000E+00    0.0000000000000000E+00    0.0000000000000000E+00    0.0000000000000000E+00
 -0.6485  -0.1303    0.5175953772114663E-01    0.0000000000000000E+00    0.0000000000000000E+00    0.4337894428140662E+00   -0.1130220454819640E+01    0.0000000000000000E+00    0.0000000000000000E+00    0.0000000000000000E+00    0.0000000000000000E+00    0.0000000000000000E+00
 -0.6561  -0.1437    0.4606534362332140E-01    0.0000000000000000E+00    0.0000000000000000E+00    0.4481505861783712E+00   -0.6279024705429118E+00    0.0000000000000000E+00    0.0000000000000000E+00    0.0000000000000000E+00    0.0000000000000000E+00    0.0000000000000000E+00
 -0.6627  -0.1555    0.4055629696296281E-01    0.0000000000000000E+00    0.0000000000000000E+00    0.4612364910133424E+00   -0.2918933687385905E+00    0.0000000000000000E+00    0.0000000000000000E+00    0.0000000000000000E+00    0.0000000000000000E+00    0.0000000000000000E+00
 -0.6684  -0.1655    0.3555233666495174E-01    0.0000000000000000E+00    0.0000000000000000E+00    0.4727402676180460E+00   -0.9565273031275393E-01    0.0000000000000000E+00    0.0000000000000000E+00    0.0000000000000000E+00    0.0000000000000000E+00    0.0000000000000000E+00
 -0.6731  -0.1738    0.3129699182972746E-01    0.0000000000000000E+00    0.0000000000000000E+00    0.4824072661753175E+00   -0.6493986729404477E-02    0.0000000000000000E+00    0.0000000000000000E+00    0.0000000000000000E+00    0.0000000000000000E+00    0.0000000000000000E+00
 -0.6768  -0.1802    0.2795551271545628E-01    0.0000000000000000E+00    0.0000000000000000E+00    0.4900537826413893E+00    0.1368836698924366E-01    0.0000000000000000E+00    0.0000000000000000E+00    0.0000000000000000E+00    0.0000000000000000E+00    0.0000000000000000E+00
 -0.6794  -0.1849    0.2560328889439214E-01    0.0000000000000000E+00    0.0000000000000000E+00    0.4955672153751544E+00    0.5739561335578604E-02    0.0000000000000000E+00    0.0000000000000000E+00    0.0000000000000000E+00    0.0000000000000000E+00    0.0000000000000000E+00
 -0.6810  -0.1877    0.2421627564511386E-01    0.0000000000000000E+00    0.0000000000000000E+00    0.4988903629260455E+00   -0.3899770802216164E-04    0.0000000000000000E+00    0.0000000000000000E+00    0.0000000000000000E+00    0.0000000000000000E+00    0.0000000000000000E+00
 -0.6815  -0.1886    0.2375477923542707E-01    0.0000000000000000E+00    0.0000000000000000E+00    0.5000000000000000E+00    0.0000000000000000E+00    0.0000000000000000E+00    0.0000000000000000E+00    0.0000000000000000E+00    0.0000000000000000E+00    0.0000000000000000E+00
 -0.1877   0.6810    0.2436708258134042E-01    0.0000000000000000E+00    0.0000000000000000E+00   -0.5000000000000000E+00    0.5307074812190948E-03    0.0000000000000000E+00    0.0000000000000000E+00    0.0000000000000000E+00    0.0000000000000000E+00    0.0000000000000000E+00
 -0.1882   0.6800    0.2482918197896873E-01   -0.3843460488087394E-07    0.3878736889880330E-07   -0.4948931205276636E+00   -0.7149251844928458E-03    0.4415274752929226E-10   -0.6262267085097029E-09   -0.6963197379805663E-12   -0.6728276789880194E-12    0.1541747827495110E-10
 -0.1898   0.6772    0.2616226646690069E-01    0.7297383154865100E-05   -0.2504575089809632E-05   -0.4795975815587890E+00   -0.9368580743492524E-02   -0.3508680157370519E-08   -0.6311638538203379E-09   -0.1296215738910700E-11   -0.9987184690363193E-12    0.5938700659707807E-10
 -0.1924   0.6726    0.2828314276981422E-01    0.5177183320833331E-04   -0.6311868417843700E-05   -0.4542086964498814E+00   -0.4924865665401645E-01   -0.2766404013600171E-07   -0.6362753154215417E-09   -0.1142170993201352E-11   -0.1004925309633364E-11    0.1336142186475486E-09
 -0.1961   0.6661    0.3115550119371965E-01    0.1588665683429562E-03   -0.8920647754531982E-05   -0.4189576567235690E+00   -0.1448212165510042E+00   -0.8574429184248645E-07   -0.6403981372971046E-09   -0.4023864574875802E-12   -0.1051492226622486E-11    0.2368604513913741E-09
 -0.2007   0.6579    0.3472994638964216E-01    0.3261095679675425E-03   -0.9774043303556492E-05   -0.3743365418634745E+00   -0.2956156424424363E+00   -0.1763002201270946E-06   -0.6433755299350974E-09    0.8819819874439361E-12   -0.1036074004368004E-11    0.3685209082338048E-09
 -0.2064   0.6478    0.3886684201138041E-01    0.5266486771654472E-03   -0.8782923154372242E-05   -0.3212815711175901E+00   -0.4782058229253498E+00   -0.2845137214721721E-06   -0.6445709972713320E-09    0.2458949710515412E-11   -0.1076541633615591E-11    0.5250666984535357E-09
 -0.2131   0.6361    0.4330664830075703E-01    0.7208085160635517E-03   -0.6589009614136294E-05   -0.2613666008280569E+00   -0.6566250054136660E+00   -0.3890103235860457E-06   -0.6440697662701833E-09    0.3980288321159264E-11   -0.1010524997013817E-11    0.7020817399672197E-09
 -0.2207   0.6227    0.4767381161741629E-01    0.8700681435031469E-03   -0.3816573288835500E-05   -0.1969074223161955E+00   -0.7955335918354050E+00   -0.4689951145164122E-06   -0.6423396163926509E-09    0.5082545495582735E-11   -0.9771281006543120E-12    0.8899485870461632E-09
 -0.2292   0.6076    0.5151912165494035E-01    0.9511262815972443E-03   -0.1309190996473027E-05   -0.1308701012314839E+00   -0.8732268097963957E+00   -0.5120161867846622E-06   -0.6403844347163679E-09    0.5449862783279968E-11   -0.9591416202936465E-12    0.1077080230560412E-08
 -0.2386   0.5911    0.5439204176391452E-01    0.9667225521106992E-03    0.2861923898138167E-06   -0.6654657464372299E-01   -0.8917791175087607E+00   -0.5196074151528845E-06   -0.6394781715875902E-09    0.4841627099239076E-11   -0.9217583835964549E-12    0.1247727449138480E-08
 -0.2488   0.5730    0.5593248904886346E-01    0.9480014121948119E-03    0.5369920597505572E-06   -0.7078478645535374E-02   -0.8793064050529872E+00   -0.5086372751961429E-06   -0.6412303495259217E-09    0.3155514044506091E-11   -0.9004260011213905E-12    0.1383238204533122E-08
 -0.2598   0.5535    0.5594848048912839E-01    0.9448607978285588E-03   -0.4776861885820041E-06    0.4501279077187994E-01   -0.8813074584040446E+00   -0.5060170623257703E-06   -0.6470005245538119E-09    0.5148190901360650E-12   -0.7975126635473284E-12    0.1460212895043611E-08
 -0.2716   0.5328    0.5444491657244286E-01    0.1007917616491025E-02   -0.2363041859045157E-05    0.8815543431317351E-01   -0.9442085636084405E+00   -0.5390060001492665E-06   -0.6572895804024537E-09   -0.2749005884039590E-11   -0.7736675883274202E-12    0.1451673531382980E-08
 -0.2841   0.5108    0.5158823054859962E-01    0.1172767229533025E-02   -0.4571501460246409E-05    0.1218655830105602E+00   -0.1100917112906146E+01   -0.6267245705730958E-06   -0.6711904226852639E-09   -0.6216079734278068E-11   -0.7302561333411006E-12    0.1331238216883968E-08
 -0.2972   0.4876    0.4763530921775678E-01    0.1455742646767681E-02   -0.6757485849424224E-05    0.1467021203087727E+00   -0.1366737896631104E+01   -0.7779037595202469E-06   -0.6863521816863338E-09   -0.9530681799319041E-11   -0.6452616219121410E-12    0.1081706335614996E-08
 -0.3109   0.4634    0.4287084536101575E-01    0.1860033346992134E-02   -0.8770601299841835E-05    0.1640547721572780E+00   -0.1744801274460045E+01   -0.9942294019155655E-06   -0.6996588274021942E-09   -0.1246711761604402E-10   -0.5744085762593443E-12    0.7057623339912222E-09
 -0.3251   0.4383    0.3757854022252476E-01    0.2383495216575067E-02   -0.1061949891582607E-04    0.1757944752105889E+00   -0.2233135676880001E+01   -0.1274539615421830E-05   -0.7083590519707528E-09   -0.1488999895604692E-10   -0.5130132429975731E-12    0.2314107377943131E-09
 -0.3398   0.4124    0.3203887975415007E-01    0.3021687123312077E-02   -0.1228816335413518E-04    0.1838643074834350E+00   -0.2827475679769083E+01   -0.1616489520121570E-05   -0.7106763615094547E-09   -0.1666014895485013E-10   -0.4105396578246712E-12   -0.2941480774232286E-09
 -0.3549   0.3858    0.2653697159733653E-01    0.3766455384417070E-02   -0.1373812251994361E-04    0.1899343798546037E+00   -0.3520012797968409E+01   -0.2015739318461711E-05   -0.7060292211980013E-09   -0.1760949719376015E-10   -0.2807198917764708E-12   -0.8172522806063065E-09
 -0.3703   0.3585    0.2136828987790074E-01    0.4603430748920217E-02   -0.1487333015656316E-04    0.1952222609423196E+00   -0.4297138511324460E+01   -0.2464646228715288E-05   -0.6947473152330019E-09   -0.1762913079406125E-10   -0.1856431675051340E-12   -0.1293206486991869E-08
 -0.3860   0.3308    0.1683765057641767E-01    0.5510814795160746E-02   -0.1561221786967458E-04    0.2004935240959780E+00   -0.5138376660181737E+01   -0.2951549397065678E-05   -0.6777428028514887E-09   -0.1673232385979162E-10   -0.9592326932761353E-13   -0.1695207956647904E-08
 -0.4019   0.3027    0.1324879884976200E-01    0.6459907674432669E-02   -0.1587206736225676E-04    0.2061739238593819E+00   -0.6016906920467375E+01   -0.3461104885660265E-05   -0.6559690811369645E-09   -0.1502190039026630E-10   -0.5412337245047638E-14   -0.2013637117725259E-08
 -0.4180   0.2744    0.1088612915418418E-01    0.7416825863557840E-02   -0.1561080815652496E-04    0.2124837748625143E+00   -0.6901193523002352E+01   -0.3975136681199813E-05   -0.6301592095359076E-09   -0.1273584016026064E-10    0.7854827899222983E-13   -0.2250783927293387E-08
 -0.4341   0.2459    0.9991817344085272E-02    0.8344425109795692E-02   -0.1478766470258708E-04    0.2195393740919755E+00   -0.7756767669477500E+01   -0.4473737747951245E-05   -0.6007765153415168E-09   -0.1010844186133397E-10    0.1587757703092052E-12   -0.2414971303661695E-08
 -0.4502   0.2175    0.1074252577950205E-01    0.9203628669181819E-02   -0.1337577731796763E-04    0.2274102707210537E+00   -0.8547475946856071E+01   -0.4935904769324156E-05   -0.5682671486151314E-09   -0.7329886697604593E-11    0.1837974217266947E-12   -0.2516559313367472E-08
 -0.4663   0.1891    0.1322693356826068E-01    0.9953848189172670E-02   -0.1132096413656942E-04    0.2361444903231909E+00   -0.9235862094435911E+01   -0.5339846211908694E-05   -0.5329320873492804E-09   -0.4497180405849122E-11    0.1879330024934234E-12   -0.2564275414403128E-08
 -0.4822   0.1610    0.1742399391517646E-01    0.1055294450549311E-01   -0.8563239743521726E-05    0.2457766014699555E+00   -0.9783169455075397E+01   -0.5662867078848787E-05   -0.4949022476552489E-09   -0.1559474771539726E-11    0.1433159146912999E-12   -0.2566340507291487E-08
 -0.4979   0.1333    0.2318138490406225E-01    0.1095770631687357E-01   -0.5030667561678749E-05    0.2563281913399861E+00   -0.1014979289367687E+02   -0.5881717996209279E-05   -0.4539264415737154E-09    0.1607658450808458E-11    0.1113623082638071E-12   -0.2529497314732176E-08
 -0.5133   0.1061    0.3019734341603665E-01    0.1112608791686114E-01   -0.6976118692024542E-06    0.2678053271000296E+00   -0.1029739686041691E+02   -0.5973686514030026E-05   -0.4091121840171102E-09    0.5175027073534011E-11    0.1159012122387004E-13   -0.2459846501837171E-08
 -0.5284   0.0794    0.3801349124172413E-01    0.1102209114615898E-01    0.4380791045742090E-05    0.2801949959033129E+00   -0.1019339369802963E+02   -0.5919335719796718E-05   -0.3589711878443369E-09    0.9211298390709999E-11   -0.8005401896937769E-13   -0.2362134579950159E-08
 -0.5431   0.0535    0.4603087168116224E-01    0.1062330171431417E-01    0.9997527018034464E-05    0.2934616075204826E+00   -0.9817870505355447E+01   -0.5706440417062124E-05   -0.3018855825043243E-09    0.1362854273878611E-10   -0.2373518048770507E-12   -0.2240859643676263E-08
 -0.5573   0.0284    0.5356019194940015E-01    0.9929593198342135E-02    0.1578111604922336E-04    0.3075443916387924E+00   -0.9171455628774849E+01   -0.5334826745876273E-05   -0.2366150365917807E-09    0.1812872074680172E-10   -0.3364253320370381E-12   -0.2099933579455260E-08
 -0.5710   0.0042    0.5990895590157327E-01    0.8970074119695255E-02    0.2120522657447255E-04    0.3223562938429676E+00   -0.8281588698024679E+01   -0.4819989393585023E-05   -0.1633719340365936E-09    0.2216871131111020E-10   -0.3986672103550859E-12   -0.1943578341670471E-08
 -0.5841  -0.0189    0.6449160702527661E-01    0.7804693121938501E-02    0.2569072435034105E-04    0.3377844635279779E+00   -0.7203794989364360E+01   -0.4194151343066223E-05   -0.8423530623025144E-10    0.2517158703696509E-10   -0.4533595721056827E-12   -0.1775515968624464E-08
 -0.5966  -0.0409    0.6693306672632700E-01    0.6518147053594497E-02    0.2872967480810128E-04    0.3536916157182745E+00   -0.6016052861953273E+01   -0.3502816503304062E-05   -0.3223317446288121E-11    0.2664790610396039E-10   -0.4617695115172182E-12   -0.1598544003764135E-08
 -0.6084  -0.0617    0.6713061410595890E-01    0.5206615748874618E-02    0.3002676552032856E-04    0.3699167384358570E+00   -0.4806576855932218E+01   -0.2797832064714711E-05    0.7471172291939610E-10    0.2635619500424013E-10   -0.4529154828958326E-12   -0.1417191402425244E-08
 -0.6194  -0.0812    0.6525245024522866E-01    0.3961229885277221E-02    0.2956060768708782E-04    0.3862734285980555E+00   -0.3658825836879937E+01   -0.2128232310926247E-05    0.1446783248759687E-09    0.2436204016298404E-10   -0.4191647029472279E-12   -0.1234853956935678E-08
 -0.6296  -0.0992    0.6167646238828627E-01    0.2853715901320894E-02    0.2756689423347917E-04    0.4025452420883261E+00   -0.2638390665238901E+01   -0.1532750159787357E-05    0.2031051229978154E-09    0.2104633134436540E-10   -0.4242162177092723E-12   -0.1054692480920161E-08
 -0.6390  -0.1158    0.5689626905456278E-01    0.1928594818543093E-02    0.2443234159775786E-04    0.4184799835953025E+00   -0.1786025495886268E+01   -0.1035291532925338E-05    0.2483503472316961E-09    0.1695450724259473E-10   -0.3848449336985027E-12   -0.8795522955795665E-09
 -0.6475  -0.1308    0.5142872147717629E-01    0.1203020774957404E-02    0.2056670468214388E-04    0.4337877985577885E+00   -0.1117397538783758E+01   -0.6452048669819690E-06    0.2806326768189926E-09    0.1266378668596246E-10   -0.3822775429540570E-12   -0.7130590770620948E-09
 -0.6551  -0.1443    0.4574809114409017E-01    0.6722764346111901E-03    0.1630136182015467E-04    0.4481490450209478E+00   -0.6282019230474525E+00   -0.3598290174014465E-06    0.3015227824365585E-09    0.8679992705498685E-11   -0.3834849104933369E-12   -0.5582790844199659E-09
 -0.6618  -0.1560    0.4025412553341636E-01    0.3170329679309517E-03    0.1185701884108586E-04    0.4612351465793154E+00   -0.3005376258849148E+00   -0.1689318370107869E-06    0.3134492422562918E-09    0.5369486105744059E-11   -0.3853029006961606E-12   -0.4170935003627863E-09
 -0.6675  -0.1660    0.3526605426947474E-01    0.1090326700778990E-03    0.7419213011161195E-05    0.4727391996909222E+00   -0.1082370998460743E+00   -0.5716728037159969E-07    0.3190904779987180E-09    0.2950029109882735E-11   -0.3973280038316318E-12   -0.2930136359241553E-09
 -0.6722  -0.1743    0.3102590322169440E-01    0.1337888049821237E-04    0.3303211308142971E-05    0.4824065157123379E+00   -0.1866061224658339E-01   -0.6085720358052134E-08    0.3211544944911604E-09    0.1476992139703981E-11   -0.4271791254062407E-12   -0.1894534217006250E-09
 -0.6758  -0.1808    0.2769583893665141E-01   -0.1056434195696237E-04    0.1258034342920255E-06    0.4900533372429520E+00    0.5814418915174019E-02    0.6441734315078597E-08    0.3219554870642106E-09    0.8130336681677619E-12   -0.4657819269171526E-12   -0.1067026215648137E-09
 -0.6785  -0.1854    0.2534584746210621E-01   -0.5201875532672237E-05   -0.1218868472447567E-05    0.4955670130346408E+00    0.4031805178450664E-02    0.2866722033514001E-08    0.3234504205272548E-09    0.6313326597617852E-12   -0.5111783392408586E-12   -0.4780455220045055E-10
 -0.6800  -0.1882    0.2395645279529142E-01   -0.2271648593484277E-06   -0.2270711820614387E-06    0.4988903120825068E+00    0.7498157833300540E-03    0.1933527378033351E-09    0.3257051551207313E-09    0.3371337497365401E-12   -0.3520326391504014E-12   -0.1185075930616730E-10
 -0.6806  -0.1891    0.2349466380543926E-01    0.0000000000000000E+00    0.0000000000000000E+00    0.5000000000000000E+00   -0.3880691295967418E-04    0.0000000000000000E+00    0.0000000000000000E+00    0.0000000000000000E+00    0.0000000000000000E+00    0.0000000000000000E+00
 -0.1849   0.6794    0.2518663126245268E-01    0.0000000000000000E+00    0.0000000000000000E+00   -0.5000000000000000E+00   -0.4819551098919939E-02    0.0000000000000000E+00    0.0000000000000000E+00    0.0000000000000000E+00    0.0000000000000000E+00    0.0000000000000000E+00
 -0.1854   0.6785    0.2563801243225590E-01    0.2502861351440461E-05   -0.7294066979566070E-05   -0.4948907303566076E+00   -0.9367552151003641E-02   -0.3506433454793917E-08   -0.6306158590110855E-09   -0.1006845892466759E-11   -0.1329858098642056E-11    0.1479102018815681E-10
 -0.1870   0.6757    0.2695896841979618E-01    0.4091966940188031E-04   -0.4092286826940366E-04   -0.4795879006595187E+00   -0.2227747647907738E-01   -0.7864964389081424E-07   -0.6326641641130060E-09   -0.2863006923550793E-11   -0.3315387894775590E-11    0.5952531089564728E-10
 -0.1896   0.6710    0.2907702766371667E-01    0.2054824747510637E-03   -0.9255912628182983E-04   -0.4541860971024318E+00   -0.5386759442849184E-01   -0.4426016773414634E-06   -0.6363064103398486E-09   -0.3203027253151358E-11   -0.4320648006039818E-11    0.1334851326695308E-09
 -0.1933   0.6646    0.3192975619017162E-01    0.5871182921038251E-03   -0.1328791328200784E-03   -0.4189151507531725E+00   -0.1260495815236719E+00   -0.1300712918442254E-05   -0.6400980370746545E-09   -0.1076274486200290E-11   -0.4848239865129500E-11    0.2367547546899829E-09
 -0.1980   0.6563    0.3544903740020656E-01    0.1194001597924713E-02   -0.1471805119753846E-03   -0.3742662695272949E+00   -0.2469627964097721E+00   -0.2655526666005911E-05   -0.6430367904819434E-09    0.3226134637213107E-11   -0.5027381289046673E-11    0.3680425027241530E-09
 -0.2036   0.6463    0.3949424424245894E-01    0.1938957846608727E-02   -0.1348070362339165E-03   -0.3211767640860391E+00   -0.4025324873623234E+00   -0.4301478724167139E-05   -0.6445402128685274E-09    0.8759236391764347E-11   -0.4942150855224980E-11    0.5248731588247679E-09
 -0.2103   0.6345    0.4381320942242028E-01    0.2678596867553715E-02   -0.1028427980353684E-03   -0.2612243486410737E+00   -0.5636964198485664E+00   -0.5917504340384421E-05   -0.6445242881070179E-09    0.1418011541520769E-10   -0.4669837433413093E-11    0.7015398054144306E-09
 -0.2179   0.6211    0.4804353787089884E-01    0.3267587406770899E-02   -0.6177820242512801E-04   -0.1967309209435146E+00   -0.6990418193316144E+00   -0.7184445040865781E-05   -0.6434464974724996E-09    0.1807069771597725E-10   -0.4282078164274949E-11    0.8895442021872313E-09