 title="result"
 variables="x","y","P","u","v","t","omega","psi","RES1","RES2","RES3","RES4"
zone,j= 49,i= 49,f=point
 -0.1830   0.6830    0.2407622273937486E-01    0.0000000000000000E+00    0.0000000000000000E+00   -0.5000000000000000E+00    0.0000000000000000E+00    0.0000000000000000E+00    0.0000000000000000E+00    0.0000000000000000E+00    0.0000000000000000E+00    0.0000000000000000E+00
 -0.1835   0.6821    0.2453753062999591E-01    0.0000000000000000E+00    0.0000000000000000E+00   -0.4948755765364879E+00    0.5473381390507066E-03    0.0000000000000000E+00    0.0000000000000000E+00    0.0000000000000000E+00    0.0000000000000000E+00    0.0000000000000000E+00
 -0.1852   0.6793    0.2586072245451237E-01    0.0000000000000000E+00    0.0000000000000000E+00   -0.4795275241299785E+00   -0.4869289512469635E-02    0.0000000000000000E+00    0.0000000000000000E+00    0.0000000000000000E+00    0.0000000000000000E+00    0.0000000000000000E+00
 -0.1878   0.6747    0.2796381448367666E-01    0.0000000000000000E+00    0.0000000000000000E+00   -0.4540517524101945E+00   -0.4878509428353489E-01    0.0000000000000000E+00    0.0000000000000000E+00    0.0000000000000000E+00    0.0000000000000000E+00    0.0000000000000000E+00
 -0.1915   0.6683    0.3082652903430626E-01    0.0000000000000000E+00    0.0000000000000000E+00   -0.4186813186680231E+00   -0.1558616431080226E+00    0.0000000000000000E+00    0.0000000000000000E+00    0.0000000000000000E+00    0.0000000000000000E+00    0.0000000000000000E+00
 -0.1963   0.6600    0.3440816511592813E-01    0.0000000000000000E+00    0.0000000000000000E+00   -0.3739131574647420E+00   -0.3216854720126562E+00    0.0000000000000000E+00    0.0000000000000000E+00    0.0000000000000000E+00    0.0000000000000000E+00    0.0000000000000000E+00
 -0.2020   0.6501    0.3857138859518350E-01    0.0000000000000000E+00    0.0000000000000000E+00   -0.3206940479567839E+00   -0.5189076878483961E+00    0.0000000000000000E+00    0.0000000000000000E+00    0.0000000000000000E+00    0.0000000000000000E+00    0.0000000000000000E+00
 -0.2088   0.6384    0.4305557224602462E-01    0.0000000000000000E+00    0.0000000000000000E+00   -0.2606164108020109E+00   -0.7081886867846328E+00    0.0000000000000000E+00    0.0000000000000000E+00    0.0000000000000000E+00    0.0000000000000000E+00    0.0000000000000000E+00
 -0.2165   0.6250    0.4747999025698711E-01    0.0000000000000000E+00    0.0000000000000000E+00   -0.1960217795907798E+00   -0.8517894199006535E+00    0.0000000000000000E+00    0.0000000000000000E+00    0.0000000000000000E+00    0.0000000000000000E+00    0.0000000000000000E+00
 -0.2251   0.6100    0.5138800240032562E-01    0.0000000000000000E+00    0.0000000000000000E+00   -0.1299031711255479E+00   -0.9270636532837524E+00    0.0000000000000000E+00    0.0000000000000000E+00    0.0000000000000000E+00    0.0000000000000000E+00    0.0000000000000000E+00
 -0.2347   0.5935    0.5432100340412986E-01    0.0000000000000000E+00    0.0000000000000000E+00   -0.6557089714596517E-01   -0.9368289508558266E+00    0.0000000000000000E+00    0.0000000000000000E+00    0.0000000000000000E+00    0.0000000000000000E+00    0.0000000000000000E+00
 -0.2451   0.5756    0.5591283824899979E-01    0.0000000000000000E+00    0.0000000000000000E+00   -0.6167861622812231E-02   -0.9115041265704313E+00    0.0000000000000000E+00    0.0000000000000000E+00    0.0000000000000000E+00    0.0000000000000000E+00    0.0000000000000000E+00
 -0.2562   0.5562    0.5596911202395152E-01    0.0000000000000000E+00    0.0000000000000000E+00    0.4580221208312406E-01   -0.8995864075319484E+00    0.0000000000000000E+00    0.0000000000000000E+00    0.0000000000000000E+00    0.0000000000000000E+00    0.0000000000000000E+00
 -0.2682   0.5355    0.5449612233998151E-01    0.0000000000000000E+00    0.0000000000000000E+00    0.8879776664785143E-01   -0.9500440266600051E+00    0.0000000000000000E+00    0.0000000000000000E+00    0.0000000000000000E+00    0.0000000000000000E+00    0.0000000000000000E+00
 -0.2808   0.5136    0.5166355308978311E-01    0.0000000000000000E+00    0.0000000000000000E+00    0.1223665652945703E+00   -0.1097060391075496E+01    0.0000000000000000E+00    0.0000000000000000E+00    0.0000000000000000E+00    0.0000000000000000E+00    0.0000000000000000E+00
 -0.2941   0.4906    0.4773115741693244E-01    0.0000000000000000E+00    0.0000000000000000E+00    0.1470901474644496E+00   -0.1356070897937789E+01    0.0000000000000000E+00    0.0000000000000000E+00    0.0000000000000000E+00    0.0000000000000000E+00    0.0000000000000000E+00
 -0.3080   0.4665    0.4298495127222193E-01    0.0000000000000000E+00    0.0000000000000000E+00    0.1643668449031987E+00   -0.1729869417425679E+01    0.0000000000000000E+00    0.0000000000000000E+00    0.0000000000000000E+00    0.0000000000000000E+00    0.0000000000000000E+00
 -0.3224   0.4415    0.3770874174432407E-01    0.0000000000000000E+00    0.0000000000000000E+00    0.1760636616539686E+00   -0.2216294344324507E+01    0.0000000000000000E+00    0.0000000000000000E+00    0.0000000000000000E+00    0.0000000000000000E+00    0.0000000000000000E+00
 -0.3373   0.4157    0.3218259094865915E-01    0.0000000000000000E+00    0.0000000000000000E+00    0.1841131168113886E+00   -0.2811223023467395E+01    0.0000000000000000E+00    0.0000000000000000E+00    0.0000000000000000E+00    0.0000000000000000E+00    0.0000000000000000E+00
 -0.3527   0.3892    0.2669107510997938E-01    0.0000000000000000E+00    0.0000000000000000E+00    0.1901744364297351E+00   -0.3507236203941118E+01    0.0000000000000000E+00    0.0000000000000000E+00    0.0000000000000000E+00    0.0000000000000000E+00    0.0000000000000000E+00
 -0.3683   0.3621    0.2152908958342623E-01    0.0000000000000000E+00    0.0000000000000000E+00    0.1954575892952466E+00   -0.4291202495553129E+01    0.0000000000000000E+00    0.0000000000000000E+00    0.0000000000000000E+00    0.0000000000000000E+00    0.0000000000000000E+00
 -0.3842   0.3345    0.1700089251473024E-01    0.0000000000000000E+00    0.0000000000000000E+00    0.2007242820868255E+00   -0.5143068008321012E+01    0.0000000000000000E+00    0.0000000000000000E+00    0.0000000000000000E+00    0.0000000000000000E+00    0.0000000000000000E+00
 -0.4004   0.3065    0.1340988132257417E-01    0.0000000000000000E+00    0.0000000000000000E+00    0.2063988821121895E+00   -0.6036276095932727E+01    0.0000000000000000E+00    0.0000000000000000E+00    0.0000000000000000E+00    0.0000000000000000E+00    0.0000000000000000E+00
 -0.4167   0.2783    0.1104063098420032E-01    0.0000000000000000E+00    0.0000000000000000E+00    0.2127014311076657E+00   -0.6939320879854304E+01    0.0000000000000000E+00    0.0000000000000000E+00    0.0000000000000000E+00    0.0000000000000000E+00    0.0000000000000000E+00
 -0.4330   0.2500    0.1013636709965924E-01    0.0000000000000000E+00    0.0000000000000000E+00    0.2197482757451812E+00   -0.7817508015091774E+01    0.0000000000000000E+00    0.0000000000000000E+00    0.0000000000000000E+00    0.0000000000000000E+00    0.0000000000000000E+00
 -0.4494   0.2217    0.1087594125492905E-01    0.0000000000000000E+00    0.0000000000000000E+00    0.2276090551293628E+00   -0.8634173962673614E+01    0.0000000000000000E+00    0.0000000000000000E+00    0.0000000000000000E+00    0.0000000000000000E+00    0.0000000000000000E+00
 -0.4656   0.1935    0.1335149870162221E-01    0.0000000000000000E+00    0.0000000000000000E+00    0.2363318844722274E+00   -0.9351042863802013E+01    0.0000000000000000E+00    0.0000000000000000E+00    0.0000000000000000E+00    0.0000000000000000E+00    0.0000000000000000E+00
 -0.4818   0.1655    0.1754662958393850E-01    0.0000000000000000E+00    0.0000000000000000E+00    0.2459514461473686E+00   -0.9928135893511138E+01    0.0000000000000000E+00    0.0000000000000000E+00    0.0000000000000000E+00    0.0000000000000000E+00    0.0000000000000000E+00
 -0.4977   0.1379    0.2331442401009299E-01    0.0000000000000000E+00    0.0000000000000000E+00    0.2564894895022690E+00   -0.1032414553222644E+02    0.0000000000000000E+00    0.0000000000000000E+00    0.0000000000000000E+00    0.0000000000000000E+00    0.0000000000000000E+00
 -0.5134   0.1108    0.3035848620930567E-01    0.0000000000000000E+00    0.0000000000000000E+00    0.2679523024802416E+00   -0.1049848057214410E+02    0.0000000000000000E+00    0.0000000000000000E+00    0.0000000000000000E+00    0.0000000000000000E+00    0.0000000000000000E+00
 -0.5287   0.0843    0.3822460104334388E-01    0.0000000000000000E+00    0.0000000000000000E+00    0.2803271468837127E+00   -0.1041585835783854E+02    0.0000000000000000E+00    0.0000000000000000E+00    0.0000000000000000E+00    0.0000000000000000E+00    0.0000000000000000E+00
 -0.5436   0.0585    0.4631537833889429E-01    0.0000000000000000E+00    0.0000000000000000E+00    0.2935787422373118E+00   -0.1005352536035872E+02    0.0000000000000000E+00    0.0000000000000000E+00    0.0000000000000000E+00    0.0000000000000000E+00    0.0000000000000000E+00
 -0.5580   0.0335    0.5393941103350947E-01    0.0000000000000000E+00    0.0000000000000000E+00    0.3076466338140329E+00   -0.9409727434801384E+01    0.0000000000000000E+00    0.0000000000000000E+00    0.0000000000000000E+00    0.0000000000000000E+00    0.0000000000000000E+00
 -0.5719   0.0094    0.6039808135193396E-01    0.0000000000000000E+00    0.0000000000000000E+00    0.3224440568942598E+00   -0.8510646779699004E+01    0.0000000000000000E+00    0.0000000000000000E+00    0.0000000000000000E+00    0.0000000000000000E+00    0.0000000000000000E+00
 -0.5852  -0.0136    0.6509669654258858E-01    0.0000000000000000E+00    0.0000000000000000E+00    0.3378584021799066E+00   -0.7412285156902288E+01    0.0000000000000000E+00    0.0000000000000000E+00    0.0000000000000000E+00    0.0000000000000000E+00    0.0000000000000000E+00
 -0.5978  -0.0355    0.6765006767392795E-01    0.0000000000000000E+00    0.0000000000000000E+00    0.3537525749463072E+00   -0.6194913578947611E+01    0.0000000000000000E+00    0.0000000000000000E+00    0.0000000000000000E+00    0.0000000000000000E+00    0.0000000000000000E+00
 -0.6098  -0.0562    0.6794693634187780E-01    0.0000000000000000E+00    0.0000000000000000E+00    0.3699657217508471E+00   -0.4950448807819642E+01    0.0000000000000000E+00    0.0000000000000000E+00    0.0000000000000000E+00    0.0000000000000000E+00    0.0000000000000000E+00
 -0.6210  -0.0756    0.6615032684872438E-01    0.0000000000000000E+00    0.0000000000000000E+00    0.3863115959018708E+00   -0.3766488193620313E+01    0.0000000000000000E+00    0.0000000000000000E+00    0.0000000000000000E+00    0.0000000000000000E+00    0.0000000000000000E+00
 -0.6314  -0.0935    0.6263688617871244E-01    0.0000000000000000E+00    0.0000000000000000E+00    0.4025739237587158E+00   -0.2712285835018821E+01    0.0000000000000000E+00    0.0000000000000000E+00    0.0000000000000000E+00    0.0000000000000000E+00    0.0000000000000000E+00
 -0.6409  -0.1100    0.5790198863049596E-01    0.0000000000000000E+00    0.0000000000000000E+00    0.4185006754072623E+00   -0.1831033602845309E+01    0.0000000000000000E+00    0.0000000000000000E+00    0.0000000000000000E+00    0.0000000000000000E+00    0.0000000000000000E+00
 -0.6495  -0.1250    0.5246579035374847E-01    0.0000000000000000E+00    0.0000000000000000E+00    0.4338021003958759E+00   -0.1139562492815609E+01    0.0000000000000000E+00    0.0000000000000000E+00    0.0000000000000000E+00    0.0000000000000000E+00    0.0000000000000000E+00
 -0.6572  -0.1384    0.4680583152321439E-01    0.0000000000000000E+00    0.0000000000000000E+00    0.4481585346050527E+00   -0.6336365662167510E+00    0.0000000000000000E+00    0.0000000000000000E+00    0.0000000000000000E+00    0.0000000000000000E+00    0.0000000000000000E+00
 -0.6640  -0.1501    0.4132448848957110E-01    0.0000000000000000E+00    0.0000000000000000E+00    0.4612412240502931E+00   -0.2950101796028544E+00    0.0000000000000000E+00    0.0000000000000000E+00    0.0000000000000000E+00    0.0000000000000000E+00    0.0000000000000000E+00
 -0.6697  -0.1600    0.3634290299168812E-01    0.0000000000000000E+00    0.0000000000000000E+00    0.4727429679356879E+00   -0.9705296153747640E-01    0.0000000000000000E+00    0.0000000000000000E+00    0.0000000000000000E+00    0.0000000000000000E+00    0.0000000000000000E+00
 -0.6745  -0.1683    0.3210541994155464E-01    0.0000000000000000E+00    0.0000000000000000E+00    0.4824087492090298E+00   -0.6931827045170756E-02    0.0000000000000000E+00    0.0000000000000000E+00    0.0000000000000000E+00    0.0000000000000000E+00    0.0000000000000000E+00
 -0.6782  -0.1747    0.2877782965799637E-01    0.0000000000000000E+00    0.0000000000000000E+00    0.4900545436175581E+00    0.1364602140602765E-01    0.0000000000000000E+00    0.0000000000000000E+00    0.0000000000000000E+00    0.0000000000000000E+00    0.0000000000000000E+00
 -0.6809  -0.1793    0.2643581154054676E-01    0.0000000000000000E+00    0.0000000000000000E+00    0.4955675408788753E+00    0.5762996086346901E-02    0.0000000000000000E+00    0.0000000000000000E+00    0.0000000000000000E+00    0.0000000000000000E+00    0.0000000000000000E+00
 -0.6825  -0.1821    0.2505518876440815E-01    0.0000000000000000E+00    0.0000000000000000E+00    0.4988904435994126E+00   -0.3764084025552670E-04    0.0000000000000000E+00    0.0000000000000000E+00    0.0000000000000000E+00    0.0000000000000000E+00    0.0000000000000000E+00
 -0.6830  -0.1830    0.2459588286461019E-01    0.0000000000000000E+00    0.0000000000000000E+00    0.5000000000000000E+00    0.0000000000000000E+00    0.0000000000000000E+00    0.0000000000000000E+00    0.0000000000000000E+00    0.0000000000000000E+00    0.0000000000000000E+00
 -0.1821   0.6825    0.2434373055189749E-01    0.0000000000000000E+00    0.0000000000000000E+00   -0.5000000000000000E+00    0.5479791921497708E-03    0.0000000000000000E+00    0.0000000000000000E+00    0.0000000000000000E+00    0.0000000000000000E+00    0.0000000000000000E+00
 -0.1826   0.6816    0.2480366807728606E-01   -0.4431069156625354E-07    0.4468660561821965E-07   -0.4948754131386734E+00   -0.7232637108409716E-03    0.4856471577346284E-10    0.3515400920123431E-09   -0.7811162740928301E-12   -0.7898568951669738E-12    0.1532930683431633E-10
 -0.1842   0.6788    0.2612960256798895E-01    0.7412164877596583E-05   -0.2553015048990063E-05   -0.4795268590137156E+00   -0.9551533203027117E-02   -0.3558270504179926E-08    0.3460464111440520E-09   -0.1437241818613710E-11   -0.1158876813955878E-11    0.5911343376602263E-10
 -0.1869   0.6742    0.2823818931770957E-01    0.5290128008454403E-04   -0.6463801398085627E-05   -0.4540501807799950E+00   -0.5035988547579345E-01   -0.2826065633453088E-07    0.3408705106372478E-09   -0.1285782895085741E-11   -0.1136219590636145E-11    0.1337519799776699E-09
 -0.1906   0.6677    0.3109582816028554E-01    0.1626946014386787E-03   -0.9151639626025579E-05   -0.4186783224726445E+00   -0.1483462400670015E+00   -0.8780400238852938E-07    0.3374504495279318E-09   -0.7420314362960312E-12   -0.1175101682626689E-11    0.2374825266993064E-09
 -0.1954   0.6595    0.3465757264795346E-01    0.3343569843405891E-03   -0.1003609963487619E-04   -0.3739081613208197E+00   -0.3031211959139739E+00   -0.1807530504506398E-06    0.3354461500237882E-09   -0.2791517017541878E-13   -0.1154625006716259E-11    0.3715342547505607E-09
 -0.2011   0.6495    0.3878764910110662E-01    0.5403086020028241E-03   -0.9021127320705334E-05   -0.3206865770573489E+00   -0.4906250476085808E+00   -0.2918902885749332E-06    0.3347318429380852E-09    0.5412059689291482E-12   -0.1161584717301878E-11    0.5364856475731372E-09
 -0.2079   0.6378    0.4322852552723528E-01    0.7397060442651183E-03   -0.6765335369206713E-05   -0.2606062935884704E+00   -0.6738326683505617E+00   -0.3992100870914081E-06    0.3342779976434063E-09    0.6872419300307797E-12   -0.1095960128205675E-11    0.7328010837026611E-09
 -0.2156   0.6245    0.4760443374789299E-01    0.8928339960344520E-03   -0.3910081860659374E-05   -0.1960092976716017E+00   -0.8163059868938101E+00   -0.4812747587584525E-06    0.3327354685181416E-09    0.2115113639789001E-12   -0.1069460492386654E-11    0.9603879497221968E-09
 -0.2242   0.6095    0.5146423287004287E-01    0.9755429292780673E-03   -0.1320755037290325E-05   -0.1298890604899393E+00   -0.8955502034410959E+00   -0.5251777827613866E-06    0.3282199984890044E-09   -0.1005334704373695E-11   -0.1031803982531887E-11    0.1218539810721175E-08
 -0.2337   0.5930    0.5435466018313442E-01    0.9903123346859726E-03    0.3404501931308972E-06   -0.6555617978278577E-01   -0.9133866140532987E+00   -0.5323158298759720E-06    0.3184807988079047E-09   -0.3010418303528439E-11   -0.1021226506137118E-11    0.1503132382452144E-08
 -0.2441   0.5750    0.5591321468816805E-01    0.9686572310470603E-03    0.6304359307575383E-06   -0.6153592858617346E-02   -0.8982576689963551E+00   -0.5197591790355661E-06    0.3007601498579426E-09   -0.5753356124849063E-11   -0.9864930053393728E-12    0.1802959337382504E-08
 -0.2553   0.5557    0.5594664599978043E-01    0.9612798863590174E-03   -0.3708912867923778E-06    0.4581515239780640E-01   -0.8963908686426892E+00   -0.5148542078726675E-06    0.2723858310129182E-09   -0.9031018988192585E-11   -0.9581580320827676E-12    0.2096566933951216E-08
 -0.2672   0.5350    0.5445995122812002E-01    0.1019673641006880E-02   -0.2261672550063721E-05    0.8880877193732015E-01   -0.9550135261893569E+00   -0.5453323250136270E-06    0.2313221662830767E-09   -0.1249933143099291E-10   -0.9512963333735414E-12    0.2350757213887000E-08
 -0.2799   0.5131    0.5162042859027462E-01    0.1180051650869472E-02   -0.4483122348100964E-05    0.1223753141896077E+00   -0.1107602915466089E+01   -0.6306464055039383E-06    0.1770263553801943E-09   -0.1576181199447468E-10   -0.9510933707268521E-12    0.2524717143681521E-08
 -0.2932   0.4900    0.4768566350213836E-01    0.1458988927732910E-02   -0.6682173965908920E-05    0.1470965867093111E+00   -0.1369692148594670E+01   -0.7796562426824575E-06    0.1105356361996712E-09   -0.1847582503655687E-10   -0.8454591193807204E-12    0.2579306268568615E-08
 -0.3071   0.4660    0.4294024749266696E-01    0.1859641071614413E-02   -0.8704602914334118E-05    0.1643711636456363E+00   -0.1744386694225986E+01   -0.9940285985216873E-06    0.3417086058554730E-10   -0.2037828933376673E-10   -0.8283027042033098E-12    0.2491054876263554E-08
 -0.3215   0.4410    0.3766694615120588E-01    0.2379734382733357E-02   -0.1055971484709078E-04    0.1760662373718076E+00   -0.2229600657985957E+01   -0.1272530623826834E-05   -0.4906018993833250E-10   -0.2120539854821857E-10   -0.7712996907827119E-12    0.2261101975792323E-08
 -0.3364   0.4152    0.3214478198076258E-01    0.3014737175421975E-02   -0.1223295630396053E-04    0.1841144195801239E+00   -0.2820988926665278E+01   -0.1612768363735111E-05   -0.1357935465462479E-09   -0.2065382240235003E-10   -0.6872627467124914E-12    0.1917622033387190E-08
 -0.3517   0.3887    0.2665719952863024E-01    0.3756504470259508E-02   -0.1368826281566319E-04    0.1901749168280458E+00   -0.3510754052749446E+01   -0.2010405794376853E-05   -0.2227329536086398E-09   -0.1843017578828654E-10   -0.6397798957280543E-12    0.1504942074605220E-08
 -0.3674   0.3615    0.2149803318787843E-01    0.4590783308261461E-02   -0.1483103964153700E-04    0.1954575963463382E+00   -0.4285397124571655E+01   -0.2457862517318216E-05   -0.3065127318624405E-09   -0.1430886485687122E-10   -0.5464378949326942E-12    0.1069991442616183E-08
 -0.3833   0.3339    0.1697068767471186E-01    0.5495979955011910E-02   -0.1558115874696749E-04    0.2007240379905404E+00   -0.5124632178046268E+01   -0.2943587106350365E-05   -0.3836604679785527E-09   -0.8253356331699990E-11   -0.4923006446944100E-12    0.6502679636075093E-09
 -0.3995   0.3060    0.1337797060825831E-01    0.6443652073410952E-02   -0.1585618870110493E-04    0.2063985035559293E+00   -0.6001876464690572E+01   -0.3452374347656540E-05   -0.4502579975529386E-09   -0.4534150832569139E-12   -0.3848865670619261E-12    0.2699642202494412E-09
 -0.4157   0.2778    0.1100409414779163E-01    0.7400185934969840E-02   -0.1561422605338998E-04    0.2127009677299460E+00   -0.6885841643901240E+01   -0.3966193193707562E-05   -0.5020614445017113E-09    0.8661321659886312E-11   -0.3592542929808928E-12   -0.5963323584934344E-10
 -0.4321   0.2495    0.1009205343931496E-01    0.8328681944917048E-02   -0.1481379171214427E-04    0.2197477428364467E+00   -0.7742281655458262E+01   -0.4465268993072911E-05   -0.5348969843443907E-09    0.1850661290880851E-10   -0.2645939023437904E-12   -0.3350670331470074E-09
 -0.4484   0.2211    0.1082049711277886E-01    0.9190251760945909E-02   -0.1342731539476732E-04    0.2276084533790652E+00   -0.8535212628285162E+01   -0.4928700182483607E-05   -0.5452219647983370E-09    0.2840028212602874E-10   -0.2262426357368952E-12   -0.5583054400737364E-09
 -0.4647   0.1929    0.1328129904867162E-01    0.9944408258462148E-02   -0.1139907110492539E-04    0.2363312095041725E+00   -0.9227266276751614E+01   -0.5334750990250006E-05   -0.5306516510927839E-09    0.3771399859076041E-10   -0.1862329734869661E-12   -0.7320482371328541E-09
 -0.4809   0.1650    0.1745770310457911E-01    0.1054898895137301E-01   -0.8667140630717751E-05    0.2459506926100279E+00   -0.9779658382271514E+01   -0.5660714709309506E-05   -0.4903365942443560E-09    0.4586714341670017E-10   -0.1678310268538041E-12   -0.8602260691964458E-09
 -0.4968   0.1374    0.2320244184849729E-01    0.1096058805141056E-01   -0.5156424796062748E-05    0.2564886529172740E+00   -0.1015259844487730E+02   -0.5883238893820845E-05   -0.4252231067258805E-09    0.5239481071228624E-10   -0.1469553645438992E-12   -0.9472850247271847E-09
 -0.5124   0.1103    0.3021895773053616E-01    0.1113674921093241E-01   -0.8374597250339090E-06    0.2679513802632574E+00   -0.1030736775113452E+02   -0.5979390869199025E-05   -0.3380237446285600E-09    0.5696160210177936E-10   -0.1832080494257315E-12   -0.9969492436451288E-09
 -0.5278   0.0838    0.3805331423308258E-01    0.1104082757895167E-01    0.4239142050352670E-05    0.2803261388939594E+00   -0.1021078100600355E+02   -0.5929386681017483E-05   -0.2331977198150037E-09    0.5935418823099781E-10   -0.1914926550661278E-12   -0.1013740504735017E-08
 -0.5427   0.0579    0.4610913873505687E-01    0.1064956457753539E-01    0.9870012706658742E-05    0.2935776507439610E+00   -0.9842150387304196E+01   -0.5720546237075939E-05   -0.1166376439876160E-09    0.5946276804280615E-10   -0.2184225023071917E-12   -0.1001775563544416E-08
 -0.5571   0.0330    0.5369689646933491E-01    0.9961912116857784E-02    0.1568529595035940E-04    0.3076454626680689E+00   -0.9201263063957930E+01   -0.5352198941486033E-05    0.4748840209956029E-11    0.5732947450098891E-10   -0.2527977827071481E-12   -0.9651417633843584E-09
 -0.5710   0.0089    0.6012062070316468E-01    0.9006174956207471E-02    0.2115646397185339E-04    0.3224428098899403E+00   -0.8314829690246222E+01   -0.4839404716743701E-05    0.1236764787804212E-09    0.5318928630870801E-10   -0.2644828800413279E-12   -0.9086944616903958E-09
 -0.5843  -0.0141    0.6478856703961712E-01    0.7841830992984503E-02    0.2569828620277877E-04    0.3378570810701298E+00   -0.7237953111136921E+01   -0.4214131687315628E-05    0.2334721999064371E-09    0.4741201875546608E-10   -0.2431527201807171E-12   -0.8371901435988427E-09
 -0.5969  -0.0360    0.6731816754074424E-01    0.6553586804288300E-02    0.2879377565351799E-04    0.3537511782131539E+00   -0.6048627791664252E+01   -0.3521887213978792E-05    0.3289918268367664E-09    0.4057365554643866E-10   -0.2423894418512873E-12   -0.7549696631747871E-09
 -0.6089  -0.0567    0.6759974054357447E-01    0.5238115262414060E-02    0.3013844758299199E-04    0.3699642457006940E+00   -0.4835522901888336E+01   -0.2814783984997479E-05    0.4072855178116619E-09    0.3329198028367841E-10   -0.1989797215884437E-12   -0.6666858592963010E-09
 -0.6200  -0.0761    0.6579655551888651E-01    0.3987370828919253E-02    0.2970429295867668E-04    0.3863100394490598E+00   -0.3682850969185319E+01   -0.2142299750327425E-05    0.4677315063039700E-09    0.2617345229438683E-10   -0.2100819518346952E-12   -0.5766710147597776E-09
 -0.6304  -0.0941    0.6228420556896257E-01    0.2873992331418828E-02    0.2772471250323074E-04    0.4025722969403736E+00   -0.2657035292236395E+01   -0.1543660112735655E-05    0.5116610121702614E-09    0.1966593554669771E-10   -0.1996458554032188E-12   -0.4874771333124306E-09
 -0.6400  -0.1106    0.5755630795312617E-01    0.1943276761225703E-02    0.2458826589700993E-04    0.4184990092857900E+00   -0.1799537994102681E+01   -0.1043188951453300E-05    0.5415840415023965E-09    0.1407374217166080E-10   -0.1671579541451251E-12   -0.4023824207860516E-09
 -0.6486  -0.1255    0.5213109868289351E-01    0.1212889425494182E-02    0.2070895945020417E-04    0.4338004535270835E+00   -0.1126493153391024E+01   -0.6505110086374315E-06    0.5605174310807648E-09    0.9508990816975427E-11   -0.1938726956751680E-12   -0.3232001680175678E-09
 -0.6563  -0.1389    0.4648467202004539E-01    0.6783480319475818E-03    0.1642290912762296E-04    0.4481569905062712E+00   -0.6338120132160567E+00   -0.3630908380580753E-06    0.5713579401267488E-09    0.5974022491972431E-11   -0.1822292317044116E-12   -0.2509055203187005E-09
 -0.6631  -0.1506    0.4101840433978595E-01    0.3203497570053485E-03    0.1195408379256868E-04    0.4612398766145214E+00   -0.3036184742926033E+00   -0.1707110018633201E-06    0.5766598656919975E-09    0.3407975290858900E-11   -0.2018801792402769E-12   -0.1863980584465574E-09
 -0.6688  -0.1606    0.3605272385587964E-01    0.1105427372256596E-03    0.7489936438258557E-05    0.4727418973011132E+00   -0.1096595198531059E+00   -0.5797352323003504E-07    0.5785338527686257E-09    0.1718913206216754E-11   -0.2221903216970134E-12   -0.1306494174999062E-09
 -0.6736  -0.1688    0.3183047035096617E-01    0.1387449559468247E-04    0.3346367760687467E-05    0.4824079966498248E+00   -0.1915022417943742E-01   -0.6346614464578297E-08    0.5787803370252420E-09    0.7805561752505241E-12   -0.2489015937801042E-12   -0.8397866256559805E-10
 -0.6773  -0.1752    0.2851434406411106E-01   -0.1049261608301149E-04    0.1431815799501612E-06    0.4900540968898191E+00    0.5720657098530322E-02    0.6408232471190097E-08    0.5787391035155798E-09    0.4139466547314896E-12   -0.2648931421433964E-12   -0.4747669445082092E-10
 -0.6799  -0.1798    0.2617459044906926E-01   -0.5215004684107946E-05   -0.1219639216621585E-05    0.4955673379127380E+00    0.4031814905979980E-02    0.2875364157279784E-08    0.5794315864789124E-09    0.3413302626653625E-12   -0.2830474570003627E-12   -0.2110632111793076E-10
 -0.6816  -0.1826    0.2479158777284948E-01   -0.2287563884873776E-06   -0.2286512813422111E-06    0.4988903925969131E+00    0.7525378372053016E-03    0.1947792042668104E-09    0.5806835054033427E-09    0.2073827221060753E-12   -0.2005969175489231E-12   -0.5224778183883505E-11
 -0.6821  -0.1835    0.2433198512600474E-01    0.0000000000000000E+00    0.0000000000000000E+00    0.5000000000000000E+00   -0.3746281068427697E-04    0.0000000000000000E+00    0.0000000000000000E+00    0.0000000000000000E+00    0.0000000000000000E+00    0.0000000000000000E+00
 -0.1793   0.6809    0.2517544080138175E-01    0.0000000000000000E+00    0.0000000000000000E+00   -0.5000000000000000E+00   -0.4863440791437419E-02    0.0000000000000000E+00    0.0000000000000000E+00    0.0000000000000000E+00    0.0000000000000000E+00    0.0000000000000000E+00
 -0.1798   0.6799    0.2562442274710704E-01    0.2551279134870716E-05   -0.7408771441775797E-05   -0.4948730003782386E+00   -0.9550545304755485E-02   -0.3555966748279988E-08    0.3465090965895645E-09   -0.1137664127400656E-11   -0.1532017568361965E-11    0.1458983931931779E-10
 -0.1814   0.6772    0.2693801062669315E-01    0.4180281131193742E-04   -0.4180584901894748E-04   -0.4795170843753221E+00   -0.2283324949454661E-01   -0.8020255196688279E-07    0.3442852669621743E-09   -0.3228604612392355E-11   -0.3784151811347947E-11    0.5916771326358594E-10
 -0.1841   0.6726    0.2904395259098867E-01    0.2102942977993655E-03   -0.9481764701021279E-04   -0.4540273478763930E+00   -0.5524715469957561E-01   -0.4526742976867753E-06    0.3406567111730041E-09   -0.3880987545223924E-11   -0.4732787078909340E-11    0.1334910723627125E-09
 -0.1878   0.6661    0.3188193249590385E-01    0.6016311460949006E-03   -0.1363238425242580E-03   -0.4186353376828897E+00   -0.1292901261804118E+00   -0.1332510254593873E-05    0.3373921558802451E-09   -0.2657579017961709E-11   -0.5025237170830366E-11    0.2373701825375552E-09
 -0.1926   0.6579    0.3538771611765912E-01    0.1224515721999429E-02   -0.1511123359392795E-03   -0.3738370410139137E+00   -0.2533736266856254E+00   -0.2723078002849663E-05    0.3352179089866070E-09   -0.5869540964376085E-12   -0.4948035037255494E-11    0.3715366972412149E-09
 -0.1983   0.6479    0.3942444188159938E-01    0.1989414858431217E-02   -0.1384368040419440E-03   -0.3205804733938590E+00   -0.4130483672554632E+00   -0.4413257271554617E-05    0.3340072246560410E-09    0.1122775483697325E-11   -0.4701468381274054E-11    0.5364559144127590E-09
 -0.2051   0.6362    0.4374211884961742E-01    0.2748703188410732E-02   -0.1055576560681530E-03   -0.2604623381815507E+00   -0.5783916133703920E+00   -0.6072513109160689E-05    0.3329777634175635E-09    0.1317987385895947E-11   -0.4360425215343966E-11    0.7325088313692163E-09
 -0.2128   0.6229    0.4797847396763601E-01    0.3352517234744978E-02   -0.6325040077126728E-04   -0.1958308873254078E+00   -0.7170016995627513E+00   -0.7371763018005384E-05    0.3307656544493387E-09   -0.7987777106421845E-12   -0.4017095683872540E-11    0.9602171835432216E-09