 title="result"
 variables="x","y","P","u","v","t","omega","psi","RES1","RES2","RES3","RES4"
zone,j= 49,i= 49,f=point
 -0.3868   0.5919    0.2503258320762260E-01    0.0000000000000000E+00    0.0000000000000000E+00   -0.5000000000000000E+00    0.0000000000000000E+00    0.0000000000000000E+00    0.0000000000000000E+00    0.0000000000000000E+00    0.0000000000000000E+00    0.0000000000000000E+00
 -0.3870   0.5909    0.2555270289001387E-01    0.0000000000000000E+00    0.0000000000000000E+00   -0.4957205125343838E+00   -0.6703135567379687E-04    0.0000000000000000E+00    0.0000000000000000E+00    0.0000000000000000E+00    0.0000000000000000E+00    0.0000000000000000E+00
 -0.3877   0.5877    0.2708722064569219E-01    0.0000000000000000E+00    0.0000000000000000E+00   -0.4829023932342827E+00   -0.4199461591774525E-02    0.0000000000000000E+00    0.0000000000000000E+00    0.0000000000000000E+00    0.0000000000000000E+00    0.0000000000000000E+00
 -0.3888   0.5825    0.2957667359361509E-01    0.0000000000000000E+00    0.0000000000000000E+00   -0.4616186953266507E+00   -0.1571615691846159E-01    0.0000000000000000E+00    0.0000000000000000E+00    0.0000000000000000E+00    0.0000000000000000E+00    0.0000000000000000E+00
 -0.3903   0.5752    0.3291017423203474E-01    0.0000000000000000E+00    0.0000000000000000E+00   -0.4320309364108797E+00   -0.2880180801797567E-01    0.0000000000000000E+00    0.0000000000000000E+00    0.0000000000000000E+00    0.0000000000000000E+00    0.0000000000000000E+00
 -0.3923   0.5660    0.3689064023834871E-01    0.0000000000000000E+00    0.0000000000000000E+00   -0.3944463688829696E+00   -0.3474246607905221E-01    0.0000000000000000E+00    0.0000000000000000E+00    0.0000000000000000E+00    0.0000000000000000E+00    0.0000000000000000E+00
 -0.3946   0.5547    0.4124371223192206E-01    0.0000000000000000E+00    0.0000000000000000E+00   -0.3493916918501525E+00   -0.2840385204397661E-01    0.0000000000000000E+00    0.0000000000000000E+00    0.0000000000000000E+00    0.0000000000000000E+00    0.0000000000000000E+00
 -0.3974   0.5415    0.4563725131511794E-01    0.0000000000000000E+00    0.0000000000000000E+00   -0.2976972550388194E+00   -0.1040241730160876E-01    0.0000000000000000E+00    0.0000000000000000E+00    0.0000000000000000E+00    0.0000000000000000E+00    0.0000000000000000E+00
 -0.4006   0.5264    0.4970632458510302E-01    0.0000000000000000E+00    0.0000000000000000E+00   -0.2405847291964389E+00    0.1230689732145407E-01    0.0000000000000000E+00    0.0000000000000000E+00    0.0000000000000000E+00    0.0000000000000000E+00    0.0000000000000000E+00
 -0.4041   0.5095    0.5308361095787414E-01    0.0000000000000000E+00    0.0000000000000000E+00   -0.1797437630033082E+00    0.2667056338438085E-01    0.0000000000000000E+00    0.0000000000000000E+00    0.0000000000000000E+00    0.0000000000000000E+00    0.0000000000000000E+00
 -0.4080   0.4908    0.5543644415581573E-01    0.0000000000000000E+00    0.0000000000000000E+00   -0.1173672719931263E+00    0.1434394414903280E-01    0.0000000000000000E+00    0.0000000000000000E+00    0.0000000000000000E+00    0.0000000000000000E+00    0.0000000000000000E+00
 -0.4123   0.4705    0.5650725957948666E-01    0.0000000000000000E+00    0.0000000000000000E+00   -0.5609638234163401E-01   -0.4597080223767087E-01    0.0000000000000000E+00    0.0000000000000000E+00    0.0000000000000000E+00    0.0000000000000000E+00    0.0000000000000000E+00
 -0.4169   0.4486    0.5614781567729941E-01    0.0000000000000000E+00    0.0000000000000000E+00    0.1182514933923448E-02   -0.1745445963615325E+00    0.0000000000000000E+00    0.0000000000000000E+00    0.0000000000000000E+00    0.0000000000000000E+00    0.0000000000000000E+00
 -0.4218   0.4252    0.5433570696325302E-01    0.0000000000000000E+00    0.0000000000000000E+00    0.5172376928629929E-01   -0.3866131101364161E+00    0.0000000000000000E+00    0.0000000000000000E+00    0.0000000000000000E+00    0.0000000000000000E+00    0.0000000000000000E+00
 -0.4269   0.4005    0.5116862813440841E-01    0.0000000000000000E+00    0.0000000000000000E+00    0.9345012203811845E-01   -0.6910007892980370E+00    0.0000000000000000E+00    0.0000000000000000E+00    0.0000000000000000E+00    0.0000000000000000E+00    0.0000000000000000E+00
 -0.4324   0.3744    0.4684202186827301E-01    0.0000000000000000E+00    0.0000000000000000E+00    0.1254579424389354E+00   -0.1092178403251389E+01    0.0000000000000000E+00    0.0000000000000000E+00    0.0000000000000000E+00    0.0000000000000000E+00    0.0000000000000000E+00
 -0.4381   0.3472    0.4162070425383560E-01    0.0000000000000000E+00    0.0000000000000000E+00    0.1482506972471291E+00   -0.1593444809171176E+01    0.0000000000000000E+00    0.0000000000000000E+00    0.0000000000000000E+00    0.0000000000000000E+00    0.0000000000000000E+00
 -0.4440   0.3190    0.3581307514935025E-01    0.0000000000000000E+00    0.0000000000000000E+00    0.1635250164702297E+00   -0.2197908158013258E+01    0.0000000000000000E+00    0.0000000000000000E+00    0.0000000000000000E+00    0.0000000000000000E+00    0.0000000000000000E+00
 -0.4501   0.2898    0.2975298796599022E-01    0.0000000000000000E+00    0.0000000000000000E+00    0.1735769513783472E+00   -0.2906152715658347E+01    0.0000000000000000E+00    0.0000000000000000E+00    0.0000000000000000E+00    0.0000000000000000E+00    0.0000000000000000E+00
 -0.4564   0.2599    0.2379039071609893E-01    0.0000000000000000E+00    0.0000000000000000E+00    0.1806273547529285E+00   -0.3712166824267440E+01    0.0000000000000000E+00    0.0000000000000000E+00    0.0000000000000000E+00    0.0000000000000000E+00    0.0000000000000000E+00
 -0.4628   0.2292    0.1828628886378810E-01    0.0000000000000000E+00    0.0000000000000000E+00    0.1863775932194628E+00   -0.4599992857588412E+01    0.0000000000000000E+00    0.0000000000000000E+00    0.0000000000000000E+00    0.0000000000000000E+00    0.0000000000000000E+00
 -0.4694   0.1980    0.1360350781217763E-01    0.0000000000000000E+00    0.0000000000000000E+00    0.1919051132497644E+00   -0.5542694206882035E+01    0.0000000000000000E+00    0.0000000000000000E+00    0.0000000000000000E+00    0.0000000000000000E+00    0.0000000000000000E+00
 -0.4760   0.1664    0.1008707672915456E-01    0.0000000000000000E+00    0.0000000000000000E+00    0.1977943689993767E+00   -0.6503844389573438E+01    0.0000000000000000E+00    0.0000000000000000E+00    0.0000000000000000E+00    0.0000000000000000E+00    0.0000000000000000E+00
 -0.4827   0.1346    0.8034792817778733E-02    0.0000000000000000E+00    0.0000000000000000E+00    0.2043320395546457E+00   -0.7440616789040909E+01    0.0000000000000000E+00    0.0000000000000000E+00    0.0000000000000000E+00    0.0000000000000000E+00    0.0000000000000000E+00
 -0.4894   0.1026    0.7663795348450042E-02    0.0000000000000000E+00    0.0000000000000000E+00    0.2116581848556167E+00   -0.8307171111690900E+01    0.0000000000000000E+00    0.0000000000000000E+00    0.0000000000000000E+00    0.0000000000000000E+00    0.0000000000000000E+00
 -0.4961   0.0705    0.9079417624380633E-02    0.0000000000000000E+00    0.0000000000000000E+00    0.2198498290864933E+00   -0.9057386595954306E+01    0.0000000000000000E+00    0.0000000000000000E+00    0.0000000000000000E+00    0.0000000000000000E+00    0.0000000000000000E+00
 -0.5028   0.0387    0.1225013878146659E-01    0.0000000000000000E+00    0.0000000000000000E+00    0.2289563625082733E+00   -0.9646792929914074E+01    0.0000000000000000E+00    0.0000000000000000E+00    0.0000000000000000E+00    0.0000000000000000E+00    0.0000000000000000E+00
 -0.5094   0.0071    0.1699046165121594E-01    0.0000000000000000E+00    0.0000000000000000E+00    0.2390104692150174E+00   -0.1003429270724362E+02    0.0000000000000000E+00    0.0000000000000000E+00    0.0000000000000000E+00    0.0000000000000000E+00    0.0000000000000000E+00
 -0.5159  -0.0241    0.2295423154616862E-01    0.0000000000000000E+00    0.0000000000000000E+00    0.2500290925372182E+00   -0.1018461862730492E+02    0.0000000000000000E+00    0.0000000000000000E+00    0.0000000000000000E+00    0.0000000000000000E+00    0.0000000000000000E+00
 -0.5223  -0.0547    0.2964348507158901E-01    0.0000000000000000E+00    0.0000000000000000E+00    0.2620110144403420E+00   -0.1007222924453538E+02    0.0000000000000000E+00    0.0000000000000000E+00    0.0000000000000000E+00    0.0000000000000000E+00    0.0000000000000000E+00
 -0.5286  -0.0847    0.3643998097582832E-01    0.0000000000000000E+00    0.0000000000000000E+00    0.2749337308370068E+00   -0.9686580216461508E+01    0.0000000000000000E+00    0.0000000000000000E+00    0.0000000000000000E+00    0.0000000000000000E+00    0.0000000000000000E+00
 -0.5347  -0.1139    0.4266467490886221E-01    0.0000000000000000E+00    0.0000000000000000E+00    0.2887508807906052E+00   -0.9037615852525832E+01    0.0000000000000000E+00    0.0000000000000000E+00    0.0000000000000000E+00    0.0000000000000000E+00    0.0000000000000000E+00
 -0.5406  -0.1421    0.4766287287652726E-01    0.0000000000000000E+00    0.0000000000000000E+00    0.3033909288464469E+00   -0.8159374935541036E+01    0.0000000000000000E+00    0.0000000000000000E+00    0.0000000000000000E+00    0.0000000000000000E+00    0.0000000000000000E+00
 -0.5463  -0.1693    0.5090090375462515E-01    0.0000000000000000E+00    0.0000000000000000E+00    0.3187572928848682E+00   -0.7109392493337001E+01    0.0000000000000000E+00    0.0000000000000000E+00    0.0000000000000000E+00    0.0000000000000000E+00    0.0000000000000000E+00
 -0.5518  -0.1954    0.5204991496429591E-01    0.0000000000000000E+00    0.0000000000000000E+00    0.3347294186435421E+00   -0.5962586879452888E+01    0.0000000000000000E+00    0.0000000000000000E+00    0.0000000000000000E+00    0.0000000000000000E+00    0.0000000000000000E+00
 -0.5570  -0.2201    0.5103108138213391E-01    0.0000000000000000E+00    0.0000000000000000E+00    0.3511635759237494E+00   -0.4800398885245414E+01    0.0000000000000000E+00    0.0000000000000000E+00    0.0000000000000000E+00    0.0000000000000000E+00    0.0000000000000000E+00
 -0.5619  -0.2435    0.4800800931174900E-01    0.0000000000000000E+00    0.0000000000000000E+00    0.3678918298357032E+00   -0.3698106156487388E+01    0.0000000000000000E+00    0.0000000000000000E+00    0.0000000000000000E+00    0.0000000000000000E+00    0.0000000000000000E+00
 -0.5665  -0.2654    0.4333148328592980E-01    0.0000000000000000E+00    0.0000000000000000E+00    0.3847182621806843E+00   -0.2714192869439547E+01    0.0000000000000000E+00    0.0000000000000000E+00    0.0000000000000000E+00    0.0000000000000000E+00    0.0000000000000000E+00
 -0.5707  -0.2857    0.3745847831978906E-01    0.0000000000000000E+00    0.0000000000000000E+00    0.4014133326553195E+00   -0.1884723927535832E+01    0.0000000000000000E+00    0.0000000000000000E+00    0.0000000000000000E+00    0.0000000000000000E+00    0.0000000000000000E+00
 -0.5746  -0.3043    0.3087241473717000E-01    0.0000000000000000E+00    0.0000000000000000E+00    0.4177097496068203E+00   -0.1223495224803292E+01    0.0000000000000000E+00    0.0000000000000000E+00    0.0000000000000000E+00    0.0000000000000000E+00    0.0000000000000000E+00
 -0.5782  -0.3213    0.2402450534275578E-01    0.0000000000000000E+00    0.0000000000000000E+00    0.4333049012752219E+00   -0.7264880335494489E+00    0.0000000000000000E+00    0.0000000000000000E+00    0.0000000000000000E+00    0.0000000000000000E+00    0.0000000000000000E+00
 -0.5813  -0.3363    0.1730298703356850E-01    0.0000000000000000E+00    0.0000000000000000E+00    0.4478740306414603E+00   -0.3780573153816404E+00    0.0000000000000000E+00    0.0000000000000000E+00    0.0000000000000000E+00    0.0000000000000000E+00    0.0000000000000000E+00
 -0.5841  -0.3496    0.1102551709635253E-01    0.0000000000000000E+00    0.0000000000000000E+00    0.4610942878047572E+00   -0.1562598354387541E+00    0.0000000000000000E+00    0.0000000000000000E+00    0.0000000000000000E+00    0.0000000000000000E+00    0.0000000000000000E+00
 -0.5865  -0.3608    0.5443843065032043E-02    0.0000000000000000E+00    0.0000000000000000E+00    0.4726741378867273E+00   -0.3589959011777901E-01    0.0000000000000000E+00    0.0000000000000000E+00    0.0000000000000000E+00    0.0000000000000000E+00    0.0000000000000000E+00
 -0.5884  -0.3701    0.7487257045317283E-03    0.0000000000000000E+00    0.0000000000000000E+00    0.4823786422874755E+00    0.1090794984797340E-01    0.0000000000000000E+00    0.0000000000000000E+00    0.0000000000000000E+00    0.0000000000000000E+00    0.0000000000000000E+00
 -0.5900  -0.3774   -0.2932313915026023E-02    0.0000000000000000E+00    0.0000000000000000E+00    0.4900417885447190E+00    0.1438795466788496E-01    0.0000000000000000E+00    0.0000000000000000E+00    0.0000000000000000E+00    0.0000000000000000E+00    0.0000000000000000E+00
 -0.5910  -0.3826   -0.5543367748917436E-02    0.0000000000000000E+00    0.0000000000000000E+00    0.4955626052146828E+00    0.4371667096370525E-02    0.0000000000000000E+00    0.0000000000000000E+00    0.0000000000000000E+00    0.0000000000000000E+00    0.0000000000000000E+00
 -0.5917  -0.3858   -0.7099959009359539E-02    0.0000000000000000E+00    0.0000000000000000E+00    0.4988892523157235E+00   -0.1068252171791404E-03    0.0000000000000000E+00    0.0000000000000000E+00    0.0000000000000000E+00    0.0000000000000000E+00    0.0000000000000000E+00
 -0.5919  -0.3868   -0.7620716212686310E-02    0.0000000000000000E+00    0.0000000000000000E+00    0.5000000000000000E+00    0.0000000000000000E+00    0.0000000000000000E+00    0.0000000000000000E+00    0.0000000000000000E+00    0.0000000000000000E+00    0.0000000000000000E+00
 -0.3858   0.5917    0.2514389547235481E-01    0.0000000000000000E+00    0.0000000000000000E+00   -0.5000000000000000E+00   -0.6719969817384234E-04    0.0000000000000000E+00    0.0000000000000000E+00    0.0000000000000000E+00    0.0000000000000000E+00    0.0000000000000000E+00
 -0.3860   0.5907    0.2566354669960082E-01    0.2031959895841240E-06   -0.2032889468099240E-06   -0.4957204114572609E+00   -0.5441047427541381E-03   -0.1372932162798072E-09    0.1165764051806219E-08    0.1373471377862784E-12    0.1073635538112461E-12   -0.7856877475009849E-11
 -0.3866   0.5875    0.2719756871261184E-01    0.4186296505808030E-05   -0.1038630866994107E-05   -0.4829019878125400E+00   -0.3765755976187253E-02   -0.2260770103681289E-08    0.1166642496150394E-08    0.2465996157274830E-12    0.1508259662996725E-12   -0.3372294023890055E-10
 -0.3877   0.5823    0.2968359503891165E-01    0.1514568992520734E-04   -0.1163698881932022E-05   -0.4616177786722828E+00   -0.1259527710427984E-01   -0.8432193813773046E-08    0.1168266086301606E-08    0.2520128203342686E-12    0.1654587925004058E-12   -0.7540453851595519E-10
 -0.3893   0.5750    0.3300844038010268E-01    0.2801399525810611E-04   -0.6943446122442651E-06   -0.4320293034942549E+00   -0.2357846593733004E-01   -0.1546846879034279E-07    0.1170945923990169E-08   -0.1127899856845360E-12    0.1982971079006468E-12   -0.1336341228647120E-09
 -0.3912   0.5657    0.3697735931626113E-01    0.3408734611464117E-04   -0.1857116101172241E-07   -0.3944438246076086E+00   -0.2896893284509530E-01   -0.1880419651909251E-07    0.1174456895417766E-08   -0.1100453062008455E-11    0.1996196719207532E-12   -0.2062740707409194E-09
 -0.3936   0.5545    0.4131773942819024E-01    0.2791776333347983E-04    0.5562056539068345E-06   -0.3493880520227899E+00   -0.2380169852078893E-01   -0.1536935114649079E-07    0.1177933384079871E-08   -0.2821697736576922E-11    0.2252469044616845E-12   -0.2912333325888472E-09
 -0.3963   0.5412    0.4569860988987686E-01    0.1006598328474888E-04    0.8286126520441776E-06   -0.2976923477668856E+00   -0.8452920678768917E-02   -0.5581142741682199E-08    0.1180429677182654E-08   -0.5177810437351216E-11    0.2303287768845586E-12   -0.3810104384771584E-09
 -0.3995   0.5261    0.4975582784352572E-01   -0.1221283046394729E-04    0.6930343730794227E-06   -0.2405784106425637E+00    0.1044663133755301E-01    0.6719263558373663E-08    0.1181117614303118E-08   -0.7911951475925161E-11    0.2453232929300331E-12   -0.4642066592230876E-09
 -0.4031   0.5092    0.5312275286830638E-01   -0.2518138833228568E-04    0.9038648276648819E-07   -0.1797359572136583E+00    0.2031040614419037E-01    0.1407738734729333E-07    0.1179479200912699E-08   -0.1070307384387625E-10    0.1872302700790633E-12   -0.5218120380234836E-09
 -0.4070   0.4906    0.5546721463801822E-01   -0.9496457459346926E-05   -0.9841033747422531E-06   -0.1173580344379293E+00    0.3328864646348607E-02    0.6133538944195663E-08    0.1175058218479477E-08   -0.1326016033087463E-10    0.1894612938757589E-12   -0.5281068013451851E-09
 -0.4112   0.4703    0.5653189651635516E-01    0.5733156780561912E-04   -0.2460798536221788E-05   -0.5608597476663903E-01   -0.6120147026880618E-01   -0.2924294340246989E-07    0.1167026412139671E-08   -0.1538927318911476E-10    0.1476960914681413E-12   -0.4513611290279940E-09
 -0.4158   0.4484    0.5616845048924866E-01    0.1967551599519171E-03   -0.4191465029222340E-05    0.1193567590821034E-02   -0.1930978389557828E+00   -0.1035489901210285E-06    0.1153694001443384E-08   -0.1701373070206458E-10    0.1288795459242209E-12   -0.2605821669554587E-09
 -0.4207   0.4250    0.5435423169676693E-01    0.4249700829397746E-03   -0.6003902590626327E-05    0.5173468981265062E-01   -0.4073748015089177E+00   -0.2254986924532947E-06    0.1132120758251531E-08   -0.1813453553989319E-10    0.1029488994053196E-12    0.6628464443991788E-10
 -0.4259   0.4002    0.5118678938604515E-01    0.7514234987796982E-03   -0.7778247483680060E-05    0.9346001009065995E-01   -0.7128656581670046E+00   -0.4001292112066713E-06    0.1098253248760228E-08   -0.1874308347415976E-10    0.1340594302234877E-13    0.5308183614882722E-09
 -0.4313   0.3742    0.4686163172704332E-01    0.1180912495820181E-02   -0.9486923275774678E-05    0.1254660162834776E+00   -0.1114058408701165E+01   -0.6300224396079475E-06    0.1047862508568587E-08   -0.1876417077273373E-10   -0.5237477118669176E-13    0.1106208250001295E-08
 -0.4370   0.3470    0.4164358411238923E-01    0.1716875593258702E-02   -0.1115628545487512E-04    0.1482565436414128E+00   -0.1614082621680949E+01   -0.9170227549528752E-06    0.9774718152943951E-09   -0.1805704197277436E-10   -0.1304442664995520E-12    0.1736930890783306E-08
 -0.4430   0.3188    0.3584071695856821E-01    0.2362401469113392E-02   -0.1279465407162928E-04    0.1635286974803472E+00   -0.2215597086129292E+01   -0.1262835850697525E-05    0.8855935533513826E-09   -0.1640079044795684E-10   -0.2360611706109239E-12    0.2353580125930010E-08
 -0.4491   0.2896    0.2978606776717511E-01    0.3117771000080423E-02   -0.1434075167383083E-04    0.1735788997415062E+00   -0.2918543413785732E+01   -0.1667665849895565E-05    0.7732936964377490E-09   -0.1351140033190035E-10   -0.3259198466665225E-12    0.2891179585670645E-08
 -0.4554   0.2596    0.2382846168331753E-01    0.3976185667086332E-02   -0.1566552909761712E-04    0.1806281394776891E+00   -0.3716229894059535E+01   -0.2127943790131633E-05    0.6441572206195012E-09   -0.9085130217578730E-11   -0.3908262602436707E-12    0.3308524821298009E-08
 -0.4618   0.2290    0.1832771874646306E-01    0.4920278570900178E-02   -0.1660598975145202E-04    0.1863777088289781E+00   -0.4592169398042629E+01   -0.2634420877832810E-05    0.5039432690590040E-09   -0.2833948353764271E-11   -0.5099254352103344E-12    0.3592353297726105E-08
 -0.4683   0.1978    0.1364568503268056E-01    0.5921090879015437E-02   -0.1701079008969949E-04    0.1919048864758918E+00   -0.5519197079677786E+01   -0.3171619879324728E-05    0.3601291834187670E-09    0.5440002615042516E-11   -0.5848654893725325E-12    0.3753252977075489E-08
 -0.4749   0.1662    0.1012671066080059E-01    0.6939713832225776E-02   -0.1676904169520674E-04    0.1977939714949609E+00   -0.6461049462150428E+01   -0.3718698719411323E-05    0.2214096544994604E-09    0.1567730667506595E-10   -0.5960232307700153E-12    0.3812852086143570E-08
 -0.4816   0.1343    0.8068238519128934E-02    0.7930604966594802E-02   -0.1582022176124282E-04    0.2043315436880989E+00   -0.7375471276602503E+01   -0.4251223877219693E-05    0.9690540037077255E-10    0.2755640160501116E-10   -0.6598332991103462E-12    0.3795745492224389E-08
 -0.4883   0.1023    0.7687263489461913E-02    0.8845192720379454E-02   -0.1414153595211718E-04    0.2116576138939539E+00   -0.8217559469901506E+01   -0.4743110206499236E-05   -0.4596694552772007E-11    0.4043920753815655E-10   -0.6305095334724342E-12    0.3722484999066356E-08
 -0.4950   0.0703    0.9089106605740709E-02    0.9634772002763295E-02   -0.1173223727561347E-04    0.2198491867966540E+00   -0.8942445122915407E+01   -0.5168163104426392E-05   -0.7568717180772566E-10    0.5345229814324171E-10   -0.5732220254017761E-12    0.3610179401952740E-08
 -0.5017   0.0385    0.1224227734940699E-01    0.1025254495532561E-01   -0.8600821147662635E-05    0.2289556467004267E+00   -0.9507167527707592E+01   -0.5501195271355482E-05   -0.1114038791771854E-09    0.6558437126713557E-10   -0.4664116315389322E-12    0.3470452966669590E-08
 -0.5083   0.0069    0.1696140417849646E-01    0.1065544102260401E-01   -0.4772342915332553E-05    0.2390096770662018E+00   -0.9872362004885487E+01   -0.5718978933561668E-05   -0.1099497385498305E-09    0.7581812955237410E-10   -0.3464555031751360E-12    0.3311486342950920E-08
 -0.5149  -0.0243    0.2290063724364534E-01    0.1080670741889926E-01   -0.3092903134251534E-06    0.2500282226025488E+00   -0.1000463035415505E+02   -0.5801672840748061E-05   -0.7328343086445560E-10    0.8316014543652273E-10   -0.1514618508738352E-12    0.3139305732036135E-08
 -0.5213  -0.0550    0.2956269674940063E-01    0.1067999684765687E-01    0.4651995408182168E-05    0.2620100673675745E+00   -0.9880296376476778E+01   -0.5734984549280217E-05   -0.7346423816501080E-11    0.8684397645453146E-10    0.3117298086330322E-13    0.2958183307685824E-08
 -0.5276  -0.0849    0.3633052309442205E-01    0.1026486863160708E-01    0.9873022191751268E-05    0.2749327093218724E+00   -0.9490394844773540E+01   -0.5513188777758062E-05    0.7853905373278458E-10    0.8634415404884521E-10    0.2578701141509043E-12    0.2770705748167401E-08
 -0.5337  -0.1141    0.4252682629906502E-01    0.9572478409581314E-02    0.1500215932446487E-04    0.2887497888096057E+00   -0.8845829274351507E+01   -0.5142149500144990E-05    0.1726378380528804E-09    0.8156469943898514E-10    0.4814759702043148E-12    0.2578718148738002E-08
 -0.5396  -0.1423    0.4749905172200458E-01    0.8639255271634063E-02    0.1960806459581297E-04    0.3033897702289756E+00   -0.7980612310783993E+01   -0.4641387553588043E-05    0.2625593284455441E-09    0.7293360360094425E-10    0.6794148577071724E-12    0.2383043363335391E-08
 -0.5453  -0.1695    0.5071573063663375E-01    0.7526164372080511E-02    0.2324958440619656E-04    0.3187560695951396E+00   -0.6951112902752604E+01   -0.4043625434106762E-05    0.3376153523415582E-09    0.6136147145952009E-10    0.8461009670668318E-12    0.2184266652965894E-08
 -0.5508  -0.1956    0.5184975169055715E-01    0.6312224138490260E-02    0.2557716336310922E-04    0.3347281295843033E+00   -0.5830026555907150E+01   -0.3391396473090020E-05    0.3906806822495668E-09    0.4817185539351954E-10    0.9502815201400949E-12    0.1982720860757570E-08
 -0.5559  -0.2203    0.5082318787649599E-01    0.5083107058654032E-02    0.2641579631098107E-04    0.3511622173993891E+00   -0.4695976402633899E+01   -0.2730797812984220E-05    0.4193946856467790E-09    0.3485439714623340E-10    0.1052075093710414E-11    0.1779096507267819E-08
 -0.5608  -0.2437    0.4779946232484814E-01    0.3917885747701549E-02    0.2580806860510252E-04    0.3678903987208866E+00   -0.3621395461790409E+01   -0.2104459752260905E-05    0.4259661165462170E-09    0.2275982180499625E-10    0.1074376698717572E-11    0.1574451312380543E-08
 -0.5654  -0.2656    0.4312828368805683E-01    0.2877952261052087E-02    0.2398204781240520E-04    0.3847167620432861E+00   -0.2662506377432613E+01   -0.1545418894713564E-05    0.4158520403030330E-09    0.1282055017703954E-10    0.1072086863729282E-11    0.1370389307239761E-08
 -0.5697  -0.2859    0.3726498828076630E-01    0.2001169556155928E-02    0.2127842844851486E-04    0.4014117815798717E+00   -0.1853961947845745E+01   -0.1074123984169759E-05    0.3957879440852352E-09    0.5490524701556865E-11    0.1055378007208674E-11    0.1169055118335760E-08
 -0.5736  -0.3046    0.3069134021131681E-01    0.1302036047641381E-02    0.1804633264026200E-04    0.4177081867405427E+00   -0.1209074019262395E+01   -0.6983253509993361E-06    0.3721014121826904E-09    0.7078643227131920E-12    0.1022570916831000E-11    0.9733831952268845E-09
 -0.5771  -0.3215    0.2385718224061409E-01    0.7763354249068216E-03    0.1457495095716948E-04    0.4333033881845476E+00   -0.7239586590836474E+00   -0.4158215792912165E-06    0.3494247634294734E-09   -0.1913171877865327E-11    0.9743594819866530E-12    0.7872963184163417E-09
 -0.5803  -0.3366    0.1714991595752222E-01    0.4075719799772398E-03    0.1104838892272548E-04    0.4478726444450810E+00   -0.3834786972840229E+00   -0.2176519007074443E-06    0.3305920502627568E-09   -0.2942254079263407E-11    0.9495737529618964E-12    0.6144053477791234E-09
 -0.5831  -0.3498    0.1088667569502296E-01    0.1725159132252625E-03    0.7583875829395773E-05    0.4610931059732102E+00   -0.1661356966603609E+00   -0.9144302127051038E-07    0.3165834313451077E-09   -0.2968195134123164E-11    0.9259815136886118E-12    0.4579832155876540E-09
 -0.5854  -0.3611    0.5318708955034877E-02    0.4434688352969186E-04    0.4289740292881502E-05    0.4726732185813269E+00   -0.4707876553881210E-01   -0.2267513664474855E-07    0.3072070289128481E-09   -0.2510838759128831E-11    0.8925638006473946E-12    0.3218627768822313E-09
 -0.5874  -0.3704    0.6355910265358125E-03   -0.6661072298191567E-05    0.1428829562626154E-05    0.4823780072886569E+00    0.1441469374385701E-02    0.4409142208990532E-08    0.3012688627214433E-09   -0.1953520678554810E-11    0.9091139299699513E-12    0.2068949673042497E-09
 -0.5889  -0.3776   -0.3037529173020495E-02   -0.1262177301777966E-04   -0.5641377103217323E-06    0.4900414161977457E+00    0.9051912463590828E-02    0.7299633712664893E-08    0.2973744419113022E-09   -0.1530397336635403E-11    0.8838442130953972E-12    0.1171660268806107E-09
 -0.5900  -0.3828   -0.5648166169011689E-02   -0.4295453626525233E-05   -0.1104478141679357E-05    0.4955624371243421E+00    0.3744331849309269E-02    0.2307328583460453E-08    0.2933906618086263E-09   -0.1257367040347068E-11    0.9516745030913043E-12    0.5198928050217932E-10
 -0.5907  -0.3860   -0.7207079839418990E-02   -0.1392856834188707E-06   -0.1395094759005108E-06    0.4988892101569870E+00    0.5855589359672960E-03    0.1196087458660990E-09    0.2890605913267660E-09   -0.6695463411129920E-12    0.6639740840475028E-12    0.1292757003876210E-10
 -0.5909  -0.3870   -0.7727959593760714E-02    0.0000000000000000E+00    0.0000000000000000E+00    0.5000000000000000E+00   -0.1062924019310574E-03    0.0000000000000000E+00    0.0000000000000000E+00    0.0000000000000000E+00    0.0000000000000000E+00    0.0000000000000000E+00
 -0.3826   0.5910    0.2547414386427637E-01    0.0000000000000000E+00    0.0000000000000000E+00   -0.5000000000000000E+00   -0.4199010378040412E-02    0.0000000000000000E+00    0.0000000000000000E+00    0.0000000000000000E+00    0.0000000000000000E+00    0.0000000000000000E+00
 -0.3828   0.5900    0.2599147751904468E-01    0.1038082172553048E-05   -0.4185654430649849E-05   -0.4957189067169133E+00   -0.3764938051640987E-02   -0.2260431737062531E-08    0.1166406777804510E-08    0.1737508791357922E-12    0.1602037729905859E-12   -0.8586194689269577E-11
 -0.3835   0.5869    0.2752127771892838E-01    0.1247810331264403E-04   -0.1248070874021104E-04   -0.4828959625745781E+00   -0.3242357036312844E-02   -0.3066985610971730E-07    0.1166826067190707E-08    0.5127224599749125E-12    0.4425125630508342E-12   -0.3364854922471849E-10
 -0.3846   0.5816    0.2999730772736066E-01    0.4381630833770736E-04   -0.1518238439245164E-04   -0.4616041871952156E+00   -0.5439302171743793E-02   -0.1089066394118990E-06    0.1168120014778673E-08    0.4401869493908528E-12    0.7700819149025762E-12   -0.7557873684532757E-10
 -0.3861   0.5744    0.3330003363697208E-01    0.8330513261753501E-04   -0.9680605629429333E-05   -0.4320050989560393E+00   -0.1065598176786979E-01   -0.2042403542637010E-06    0.1170474734496496E-08   -0.9875121553815092E-12    0.1209264459400838E-11   -0.1336520286804310E-09
 -0.3881   0.5651    0.3723757928468502E-01    0.1038718613502217E-03   -0.4998418749441636E-06   -0.3944060320145913E+00   -0.1437825258893841E-01   -0.2518252431577441E-06    0.1173643798682913E-08   -0.4712981740984112E-11    0.1641286932752006E-11   -0.2065017080943310E-09
 -0.3904   0.5538    0.4154206856752331E-01    0.8572687835653727E-04    0.7533842962768440E-05   -0.3493338086517526E+00   -0.1238063578868094E-01   -0.2069739622866270E-06    0.1176917510063019E-08   -0.1116059415023907E-10    0.1940029517241704E-11   -0.2911492574808605E-09
 -0.3932   0.5406    0.4588618605928665E-01    0.3034378955830116E-04    0.1122549851499773E-04   -0.2976189832416739E+00   -0.4615971204832233E-02   -0.7362455700856366E-07    0.1179350441957161E-08   -0.2003851490121888E-10    0.2060881196599973E-11   -0.3810387769198620E-09
 -0.3964   0.5255    0.4990843928394461E-01   -0.3537533839042975E-04    0.8762114026810885E-05   -0.2404837476710767E+00    0.3288292256122524E-02    0.8888097826005457E-07    0.1180132668671119E-08   -0.3040978059642985E-10    0.1984756217883465E-11   -0.4644311046853034E-09