 title="result"
 variables="x","y","P","u","v","t","omega","psi","RES1","RES2","RES3","RES4"
zone,j= 49,i= 49,f=point
 -0.1830   0.6830    0.2413514447192375E-01    0.0000000000000000E+00    0.0000000000000000E+00   -0.5000000000000000E+00    0.0000000000000000E+00    0.0000000000000000E+00    0.0000000000000000E+00    0.0000000000000000E+00    0.0000000000000000E+00    0.0000000000000000E+00
 -0.1835   0.6821    0.2459644914075520E-01    0.0000000000000000E+00    0.0000000000000000E+00   -0.4948782089007980E+00    0.5478556826813879E-03    0.0000000000000000E+00    0.0000000000000000E+00    0.0000000000000000E+00    0.0000000000000000E+00    0.0000000000000000E+00
 -0.1852   0.6793    0.2591967210099502E-01    0.0000000000000000E+00    0.0000000000000000E+00   -0.4795380384392424E+00   -0.4881666235387821E-02    0.0000000000000000E+00    0.0000000000000000E+00    0.0000000000000000E+00    0.0000000000000000E+00    0.0000000000000000E+00
 -0.1878   0.6747    0.2802294563912811E-01    0.0000000000000000E+00    0.0000000000000000E+00   -0.4540753287964472E+00   -0.4885256181404578E-01    0.0000000000000000E+00    0.0000000000000000E+00    0.0000000000000000E+00    0.0000000000000000E+00    0.0000000000000000E+00
 -0.1915   0.6683    0.3088607816207642E-01    0.0000000000000000E+00    0.0000000000000000E+00   -0.4187229324687728E+00   -0.1560169312696639E+00    0.0000000000000000E+00    0.0000000000000000E+00    0.0000000000000000E+00    0.0000000000000000E+00    0.0000000000000000E+00
 -0.1963   0.6600    0.3446835577747531E-01    0.0000000000000000E+00    0.0000000000000000E+00   -0.3739772742859724E+00   -0.3219158707794748E+00    0.0000000000000000E+00    0.0000000000000000E+00    0.0000000000000000E+00    0.0000000000000000E+00    0.0000000000000000E+00
 -0.2020   0.6501    0.3863238556755382E-01    0.0000000000000000E+00    0.0000000000000000E+00   -0.3207840353665055E+00   -0.5191474226227955E+00    0.0000000000000000E+00    0.0000000000000000E+00    0.0000000000000000E+00    0.0000000000000000E+00    0.0000000000000000E+00
 -0.2088   0.6384    0.4311748644252299E-01    0.0000000000000000E+00    0.0000000000000000E+00   -0.2607336156886216E+00   -0.7083298299687432E+00    0.0000000000000000E+00    0.0000000000000000E+00    0.0000000000000000E+00    0.0000000000000000E+00    0.0000000000000000E+00
 -0.2165   0.6250    0.4754290968446089E-01    0.0000000000000000E+00    0.0000000000000000E+00   -0.1961644310547966E+00   -0.8517047864703676E+00    0.0000000000000000E+00    0.0000000000000000E+00    0.0000000000000000E+00    0.0000000000000000E+00    0.0000000000000000E+00
 -0.2251   0.6100    0.5145199982117880E-01    0.0000000000000000E+00    0.0000000000000000E+00   -0.1300655605648238E+00   -0.9266369145268517E+00    0.0000000000000000E+00    0.0000000000000000E+00    0.0000000000000000E+00    0.0000000000000000E+00    0.0000000000000000E+00
 -0.2347   0.5935    0.5438609414587319E-01    0.0000000000000000E+00    0.0000000000000000E+00   -0.6574343751331320E-01   -0.9359896336416024E+00    0.0000000000000000E+00    0.0000000000000000E+00    0.0000000000000000E+00    0.0000000000000000E+00    0.0000000000000000E+00
 -0.2451   0.5756    0.5597889890900324E-01    0.0000000000000000E+00    0.0000000000000000E+00   -0.6338413067771114E-02   -0.9102584519587833E+00    0.0000000000000000E+00    0.0000000000000000E+00    0.0000000000000000E+00    0.0000000000000000E+00    0.0000000000000000E+00
 -0.2562   0.5562    0.5603579370766237E-01    0.0000000000000000E+00    0.0000000000000000E+00    0.4564592208590980E-01   -0.8980276203301873E+00    0.0000000000000000E+00    0.0000000000000000E+00    0.0000000000000000E+00    0.0000000000000000E+00    0.0000000000000000E+00
 -0.2682   0.5355    0.5456277587939516E-01    0.0000000000000000E+00    0.0000000000000000E+00    0.8866539239560198E-01   -0.9483338384095259E+00    0.0000000000000000E+00    0.0000000000000000E+00    0.0000000000000000E+00    0.0000000000000000E+00    0.0000000000000000E+00
 -0.2808   0.5136    0.5172917800344570E-01    0.0000000000000000E+00    0.0000000000000000E+00    0.1222630851195019E+00   -0.1095397267990781E+01    0.0000000000000000E+00    0.0000000000000000E+00    0.0000000000000000E+00    0.0000000000000000E+00    0.0000000000000000E+00
 -0.2941   0.4906    0.4779441146065506E-01    0.0000000000000000E+00    0.0000000000000000E+00    0.1470152856378401E+00   -0.1354673058264581E+01    0.0000000000000000E+00    0.0000000000000000E+00    0.0000000000000000E+00    0.0000000000000000E+00    0.0000000000000000E+00
 -0.3080   0.4665    0.4304426501656220E-01    0.0000000000000000E+00    0.0000000000000000E+00    0.1643161222420887E+00   -0.1728981529597840E+01    0.0000000000000000E+00    0.0000000000000000E+00    0.0000000000000000E+00    0.0000000000000000E+00    0.0000000000000000E+00
 -0.3224   0.4415    0.3776252981139687E-01    0.0000000000000000E+00    0.0000000000000000E+00    0.1760304993989502E+00   -0.2216200222030290E+01    0.0000000000000000E+00    0.0000000000000000E+00    0.0000000000000000E+00    0.0000000000000000E+00    0.0000000000000000E+00
 -0.3373   0.4157    0.3222949842223362E-01    0.0000000000000000E+00    0.0000000000000000E+00    0.1840910086570836E+00   -0.2812243500752744E+01    0.0000000000000000E+00    0.0000000000000000E+00    0.0000000000000000E+00    0.0000000000000000E+00    0.0000000000000000E+00
 -0.3527   0.3892    0.2673020407366328E-01    0.0000000000000000E+00    0.0000000000000000E+00    0.1901583545738615E+00   -0.3509707419176263E+01    0.0000000000000000E+00    0.0000000000000000E+00    0.0000000000000000E+00    0.0000000000000000E+00    0.0000000000000000E+00
 -0.3683   0.3621    0.2156018892083839E-01    0.0000000000000000E+00    0.0000000000000000E+00    0.1954443665365144E+00   -0.4295441687096330E+01    0.0000000000000000E+00    0.0000000000000000E+00    0.0000000000000000E+00    0.0000000000000000E+00    0.0000000000000000E+00
 -0.3842   0.3345    0.1702450535708641E-01    0.0000000000000000E+00    0.0000000000000000E+00    0.2007122718222665E+00   -0.5149335632657342E+01    0.0000000000000000E+00    0.0000000000000000E+00    0.0000000000000000E+00    0.0000000000000000E+00    0.0000000000000000E+00
 -0.4004   0.3065    0.1342743034596099E-01    0.0000000000000000E+00    0.0000000000000000E+00    0.2063873875043648E+00   -0.6044741493845422E+01    0.0000000000000000E+00    0.0000000000000000E+00    0.0000000000000000E+00    0.0000000000000000E+00    0.0000000000000000E+00
 -0.4167   0.2783    0.1105441362693837E-01    0.0000000000000000E+00    0.0000000000000000E+00    0.2126902367498495E+00   -0.6950036765676341E+01    0.0000000000000000E+00    0.0000000000000000E+00    0.0000000000000000E+00    0.0000000000000000E+00    0.0000000000000000E+00
 -0.4330   0.2500    0.1014944378550619E-01    0.0000000000000000E+00    0.0000000000000000E+00    0.2197373727490620E+00   -0.7830395782455168E+01    0.0000000000000000E+00    0.0000000000000000E+00    0.0000000000000000E+00    0.0000000000000000E+00    0.0000000000000000E+00
 -0.4494   0.2217    0.1089191804088668E-01    0.0000000000000000E+00    0.0000000000000000E+00    0.2275985126301384E+00   -0.8649018319774195E+01    0.0000000000000000E+00    0.0000000000000000E+00    0.0000000000000000E+00    0.0000000000000000E+00    0.0000000000000000E+00
 -0.4656   0.1935    0.1337421879619358E-01    0.0000000000000000E+00    0.0000000000000000E+00    0.2363217974586788E+00   -0.9367492747221537E+01    0.0000000000000000E+00    0.0000000000000000E+00    0.0000000000000000E+00    0.0000000000000000E+00    0.0000000000000000E+00
 -0.4818   0.1655    0.1757979306615006E-01    0.0000000000000000E+00    0.0000000000000000E+00    0.2459419141395704E+00   -0.9945710067844223E+01    0.0000000000000000E+00    0.0000000000000000E+00    0.0000000000000000E+00    0.0000000000000000E+00    0.0000000000000000E+00
 -0.4977   0.1379    0.2336115990103431E-01    0.0000000000000000E+00    0.0000000000000000E+00    0.2564806056645188E+00   -0.1034224489663496E+02    0.0000000000000000E+00    0.0000000000000000E+00    0.0000000000000000E+00    0.0000000000000000E+00    0.0000000000000000E+00
 -0.5134   0.1108    0.3042091561888688E-01    0.0000000000000000E+00    0.0000000000000000E+00    0.2679441463982288E+00   -0.1051641309968825E+02    0.0000000000000000E+00    0.0000000000000000E+00    0.0000000000000000E+00    0.0000000000000000E+00    0.0000000000000000E+00
 -0.5287   0.0843    0.3830345808533000E-01    0.0000000000000000E+00    0.0000000000000000E+00    0.2803197798295935E+00   -0.1043288428688895E+02    0.0000000000000000E+00    0.0000000000000000E+00    0.0000000000000000E+00    0.0000000000000000E+00    0.0000000000000000E+00
 -0.5436   0.0585    0.4640978711493524E-01    0.0000000000000000E+00    0.0000000000000000E+00    0.2935722056838692E+00   -0.1006892737867920E+02    0.0000000000000000E+00    0.0000000000000000E+00    0.0000000000000000E+00    0.0000000000000000E+00    0.0000000000000000E+00
 -0.5580   0.0335    0.5404692750176851E-01    0.0000000000000000E+00    0.0000000000000000E+00    0.3076409522595034E+00   -0.9422901740159995E+01    0.0000000000000000E+00    0.0000000000000000E+00    0.0000000000000000E+00    0.0000000000000000E+00    0.0000000000000000E+00
 -0.5719   0.0094    0.6051506840658326E-01    0.0000000000000000E+00    0.0000000000000000E+00    0.3224392451139664E+00   -0.8521197748465889E+01    0.0000000000000000E+00    0.0000000000000000E+00    0.0000000000000000E+00    0.0000000000000000E+00    0.0000000000000000E+00
 -0.5852  -0.0136    0.6521899737126091E-01    0.0000000000000000E+00    0.0000000000000000E+00    0.3378544747617490E+00   -0.7420095109879297E+01    0.0000000000000000E+00    0.0000000000000000E+00    0.0000000000000000E+00    0.0000000000000000E+00    0.0000000000000000E+00
 -0.5978  -0.0355    0.6777381105270597E-01    0.0000000000000000E+00    0.0000000000000000E+00    0.3537495528597415E+00   -0.6200158805263708E+01    0.0000000000000000E+00    0.0000000000000000E+00    0.0000000000000000E+00    0.0000000000000000E+00    0.0000000000000000E+00
 -0.6098  -0.0562    0.6806922406670231E-01    0.0000000000000000E+00    0.0000000000000000E+00    0.3699636285395785E+00   -0.4953548750123865E+01    0.0000000000000000E+00    0.0000000000000000E+00    0.0000000000000000E+00    0.0000000000000000E+00    0.0000000000000000E+00
 -0.6210  -0.0756    0.6626958729266846E-01    0.0000000000000000E+00    0.0000000000000000E+00    0.3863104379142995E+00   -0.3768001009999291E+01    0.0000000000000000E+00    0.0000000000000000E+00    0.0000000000000000E+00    0.0000000000000000E+00    0.0000000000000000E+00
 -0.6314  -0.0935    0.6275282212858378E-01    0.0000000000000000E+00    0.0000000000000000E+00    0.4025736569163426E+00   -0.2712785502558575E+01    0.0000000000000000E+00    0.0000000000000000E+00    0.0000000000000000E+00    0.0000000000000000E+00    0.0000000000000000E+00
 -0.6409  -0.1100    0.5801521674315331E-01    0.0000000000000000E+00    0.0000000000000000E+00    0.4185011731803782E+00   -0.1831007899873673E+01    0.0000000000000000E+00    0.0000000000000000E+00    0.0000000000000000E+00    0.0000000000000000E+00    0.0000000000000000E+00
 -0.6495  -0.1250    0.5257736207820189E-01    0.0000000000000000E+00    0.0000000000000000E+00    0.4338031453310402E+00   -0.1139356716117707E+01    0.0000000000000000E+00    0.0000000000000000E+00    0.0000000000000000E+00    0.0000000000000000E+00    0.0000000000000000E+00
 -0.6572  -0.1384    0.4691681014399304E-01    0.0000000000000000E+00    0.0000000000000000E+00    0.4481598488279617E+00   -0.6334458506947059E+00    0.0000000000000000E+00    0.0000000000000000E+00    0.0000000000000000E+00    0.0000000000000000E+00    0.0000000000000000E+00
 -0.6640  -0.1501    0.4143567321312226E-01    0.0000000000000000E+00    0.0000000000000000E+00    0.4612425320880324E+00   -0.2949069626191021E+00    0.0000000000000000E+00    0.0000000000000000E+00    0.0000000000000000E+00    0.0000000000000000E+00    0.0000000000000000E+00
 -0.6697  -0.1600    0.3645471132246676E-01    0.0000000000000000E+00    0.0000000000000000E+00    0.4727440627408098E+00   -0.9703084427330930E-01    0.0000000000000000E+00    0.0000000000000000E+00    0.0000000000000000E+00    0.0000000000000000E+00    0.0000000000000000E+00
 -0.6745  -0.1683    0.3221789818108137E-01    0.0000000000000000E+00    0.0000000000000000E+00    0.4824095288468641E+00   -0.6950472053421138E-02    0.0000000000000000E+00    0.0000000000000000E+00    0.0000000000000000E+00    0.0000000000000000E+00    0.0000000000000000E+00
 -0.6782  -0.1747    0.2889076283773362E-01    0.0000000000000000E+00    0.0000000000000000E+00    0.4900550060428880E+00    0.1362512638370121E-01    0.0000000000000000E+00    0.0000000000000000E+00    0.0000000000000000E+00    0.0000000000000000E+00    0.0000000000000000E+00
 -0.6809  -0.1793    0.2654890504918502E-01    0.0000000000000000E+00    0.0000000000000000E+00    0.4955677507247745E+00    0.5755606732098695E-02    0.0000000000000000E+00    0.0000000000000000E+00    0.0000000000000000E+00    0.0000000000000000E+00    0.0000000000000000E+00
 -0.6825  -0.1821    0.2516828317951543E-01    0.0000000000000000E+00    0.0000000000000000E+00    0.4988904963484193E+00   -0.3781128787324479E-04    0.0000000000000000E+00    0.0000000000000000E+00    0.0000000000000000E+00    0.0000000000000000E+00    0.0000000000000000E+00
 -0.6830  -0.1830    0.2470896857456609E-01    0.0000000000000000E+00    0.0000000000000000E+00    0.5000000000000000E+00    0.0000000000000000E+00    0.0000000000000000E+00    0.0000000000000000E+00    0.0000000000000000E+00    0.0000000000000000E+00    0.0000000000000000E+00
 -0.1821   0.6825    0.2440265672252054E-01    0.0000000000000000E+00    0.0000000000000000E+00   -0.5000000000000000E+00    0.5484970436202804E-03    0.0000000000000000E+00    0.0000000000000000E+00    0.0000000000000000E+00    0.0000000000000000E+00    0.0000000000000000E+00
 -0.1826   0.6816    0.2486259173171752E-01   -0.4402309145278317E-07    0.4439918227775830E-07   -0.4948780456963278E+00   -0.7249651167620678E-03    0.4835462946743139E-10    0.3492221307597153E-09   -0.7787587848889777E-12   -0.7937678292435635E-12    0.1505151992625686E-10
 -0.1842   0.6788    0.2618855821279622E-01    0.7426412101045673E-05   -0.2557158792743559E-05   -0.4795373741100927E+00   -0.9566439917520162E-02   -0.3565600034221980E-08    0.3437245739770778E-09   -0.1439159555416403E-11   -0.1168386568051183E-11    0.5900416353427085E-10
 -0.1869   0.6742    0.2829732000792668E-01    0.5296929320391232E-04   -0.6470359888402739E-05   -0.4540737590454897E+00   -0.5041955239052936E-01   -0.2829794433571872E-07    0.3385502694158715E-09   -0.1289551148156431E-11   -0.1116325781813643E-11    0.1335898613952224E-09
 -0.1906   0.6677    0.3115536392066343E-01    0.1628493332426256E-03   -0.9157426932146900E-05   -0.4187199399691913E+00   -0.1484801419255952E+00   -0.8788877278840708E-07    0.3351267215123688E-09   -0.7424512393772176E-12   -0.1155540940711575E-11    0.2374146573780322E-09
 -0.1954   0.6595    0.3471774051055272E-01    0.3345865159938959E-03   -0.1003873478750362E-04   -0.3739722845979774E+00   -0.3033196066439527E+00   -0.1808789798441331E-06    0.3331184494914652E-09   -0.2642330798607873E-13   -0.1166886032244463E-11    0.3715537738591124E-09
 -0.2011   0.6495    0.3884862204099673E-01    0.5405455948912071E-03   -0.9019300221224818E-05   -0.3207765745826425E+00   -0.4908281133532585E+00   -0.2920205718260776E-06    0.3324024389073088E-09    0.5484362963770195E-12   -0.1165866014840589E-11    0.5363942415237410E-09
 -0.2079   0.6378    0.4329042392761456E-01    0.7398385017765204E-03   -0.6759026984386399E-05   -0.2607235126194213E+00   -0.6739390258149888E+00   -0.3992843126031802E-06    0.3319517907079961E-09    0.6983441602770313E-12   -0.1108287073225966E-11    0.7324388873186649E-09
 -0.2156   0.6245    0.4766735271815895E-01    0.8927291623280363E-03   -0.3900101033473606E-05   -0.1961519666576240E+00   -0.8161948708394149E+00   -0.4812211320233586E-06    0.3304260970740658E-09    0.2257499742697178E-12   -0.1104873137425244E-11    0.9598628697427003E-09
 -0.2242   0.6095    0.5152824831375623E-01    0.9750792673345601E-03   -0.1308703414190095E-05   -0.1300514689980823E+00   -0.8951108453434431E+00   -0.5249308189316298E-06    0.3259446345639516E-09   -0.9862111127745266E-12   -0.1077773287283534E-11    0.1217721548596451E-08
 -0.2337   0.5930    0.5441978614464327E-01    0.9894165791957011E-03    0.3524676261482245E-06   -0.6572873813956735E-01   -0.9125526428535210E+00   -0.5318358380815179E-06    0.3162399218360756E-09   -0.2989532232877679E-11   -0.1021515229175651E-11    0.1501827467942363E-08
 -0.2441   0.5750    0.5597932282425035E-01    0.9673369514431739E-03    0.6401804027343729E-06   -0.6324158603501302E-02   -0.8970369631238376E+00   -0.5190501188031046E-06    0.2985835903610706E-09   -0.5733309660360675E-11   -0.9975089330926945E-12    0.1801204990714567E-08
 -0.2553   0.5557    0.5601337992261649E-01    0.9596345212901720E-03   -0.3650700476898564E-06    0.4565885353136497E-01   -0.8948759584031799E+00   -0.5139693104614975E-06    0.2702911845080605E-09   -0.9016536649253393E-11   -0.9569593381608676E-12    0.2094256337792366E-08
 -0.2672   0.5350    0.5452665400851033E-01    0.1017875342835964E-02   -0.2260496873112515E-05    0.8867639460779901E-01   -0.9533642779414857E+00   -0.5443639613830055E-06    0.2293456787330617E-09   -0.1248774347817339E-10   -0.9451328608633958E-12    0.2347851274508983E-08
 -0.2799   0.5131    0.5168609482466689E-01    0.1178312185156321E-02   -0.4486609770354546E-05    0.1222718357190310E+00   -0.1106016495864756E+01   -0.6297080052629845E-06    0.1752059729936972E-09   -0.1575977195966694E-10   -0.8826411823648073E-12    0.2521290322354819E-08
 -0.2932   0.4900    0.4774895126906557E-01    0.1457541586669147E-02   -0.6690322953148602E-05    0.1470217294694297E+00   -0.1368386165815522E+01   -0.7788727791003961E-06    0.1088816172639673E-09   -0.1848618480515540E-10   -0.8826030184483358E-12    0.2575268949478460E-08
 -0.3071   0.4660    0.4299959248720635E-01    0.1858747129247213E-02   -0.8717724492868852E-05    0.1643204464009839E+00   -0.1743604615872674E+01   -0.9935400033980808E-06    0.3268578810389222E-10   -0.2040077135001539E-10   -0.8323480793492877E-12    0.2486484521752041E-08
 -0.3215   0.4410    0.3772077011205515E-01    0.2379695837526582E-02   -0.1057830025017580E-04    0.1760330798269591E+00   -0.2229622859680640E+01   -0.1272498908698759E-05   -0.5034772598833115E-10   -0.2123786563279495E-10   -0.7888342756778854E-12    0.2256061285704769E-08
 -0.3364   0.4152    0.3219173598222246E-01    0.3015894029502741E-02   -0.1225726478142801E-04    0.1840923147290872E+00   -0.2822129784546100E+01   -0.1613376106523742E-05   -0.1369017607610878E-09   -0.2070116647545639E-10   -0.6815728537112875E-12    0.1912013122482015E-08
 -0.3517   0.3887    0.2669638875301095E-01    0.3759211438855601E-02   -0.1371807117412642E-04    0.1901588368947341E+00   -0.3513340101218259E+01   -0.2011843806976968E-05   -0.2236801716071213E-09   -0.1848225565648232E-10   -0.6153966225497243E-12    0.1499018084140380E-08
 -0.3674   0.3615    0.2152920630420817E-01    0.4595373413877874E-02   -0.1486552738748941E-04    0.1954443745233509E+00   -0.4289733291501832E+01   -0.2460310203967657E-05   -0.3073108885420783E-09   -0.1436161953249915E-10   -0.5533906666244093E-12    0.1063741201785644E-08
 -0.3833   0.3339    0.1699438470734243E-01    0.5502724418859896E-02   -0.1561896634018155E-04    0.2007120280993228E+00   -0.5130964694943414E+01   -0.2947191025836768E-05   -0.3843126719638157E-09   -0.8297224018960492E-11   -0.4781591789182471E-12    0.6439116141329637E-09
 -0.3995   0.3060    0.1339560903429250E-01    0.6452724232273776E-02   -0.1589552134419011E-04    0.2063870090518473E+00   -0.6010359829499430E+01   -0.3457228674324854E-05   -0.4507826820154825E-09   -0.4947986464998166E-12   -0.4133915432191770E-12    0.2635992426940070E-09
 -0.4157   0.2778    0.1101796499586477E-01    0.7411634735266293E-02   -0.1565303209746645E-04    0.2126897733589158E+00   -0.6896514576251842E+01   -0.3972325486550892E-05   -0.5024858515390029E-09    0.8633843640026839E-11   -0.3413103133453887E-12   -0.6569234999725948E-10
 -0.4321   0.2495    0.1010521025017852E-01    0.8342417015239233E-02   -0.1484988623158040E-04    0.2197368397744549E+00   -0.7755053938854336E+01   -0.4472631964950429E-05   -0.5352578935635677E-09    0.1847433317436753E-10   -0.2847444502407370E-12   -0.3410965390346354E-09
 -0.4484   0.2211    0.1083653905177389E-01    0.9206038397432711E-02   -0.1345847757405198E-04    0.2275979107849753E+00   -0.8549861071006854E+01   -0.4937168980507267E-05   -0.5455269291854137E-09    0.2839267709831006E-10   -0.2365052598207740E-12   -0.5638285350759165E-09
 -0.4647   0.1929    0.1330406271817921E-01    0.9961869066279211E-02   -0.1142305907131978E-04    0.2363211223764486E+00   -0.9243436898372618E+01   -0.5344123862874622E-05   -0.5308632491929366E-09    0.3772149259617663E-10   -0.1941571903252282E-12   -0.7372152532533760E-09
 -0.4809   0.1650    0.1749088253548841E-01    0.1056761048167672E-01   -0.8681736097865352E-05    0.2459411604757516E+00   -0.9796873179731445E+01   -0.5670716536753191E-05   -0.4904841602315635E-09    0.4588296409480108E-10   -0.1646807690214303E-12   -0.8650805618723445E-09
 -0.4968   0.1374    0.2324916114458188E-01    0.1097973457877019E-01   -0.5159526355896029E-05    0.2564797689489857E+00   -0.1017026885941308E+02   -0.5893528363008990E-05   -0.4252963901191231E-09    0.5241079792384085E-10   -0.1618982725659635E-12   -0.9518230006250183E-09
 -0.5124   0.1103    0.3028133519660761E-01    0.1115568983156414E-01   -0.8273497078250772E-06    0.2679432240569207E+00   -0.1032482032170099E+02   -0.5989575000994006E-05   -0.3380299499512740E-09    0.5699246630186394E-10   -0.1767423013498970E-12   -0.1001212515672201E-08
 -0.5278   0.0838    0.3813208478090618E-01    0.1105878445167659E-01    0.4263387016064125E-05    0.2803187717331722E+00   -0.1022730233762632E+02   -0.5939046582414468E-05   -0.2331098751529037E-09    0.5939559954981632E-10   -0.2037744972760436E-12   -0.1017704288897026E-08
 -0.5427   0.0579    0.4620343241597501E-01    0.1066578697793810E-01    0.9907980876126304E-05    0.2935711141119464E+00   -0.9857055281458987E+01   -0.5729277030565747E-05   -0.1164487152538474E-09    0.5951084069977242E-10   -0.1934355453592218E-12   -0.1005236668211174E-08
 -0.5571   0.0330    0.5380428137044884E-01    0.9975771659422912E-02    0.1573480126881478E-04    0.3076397810694683E+00   -0.9213981388257519E+01   -0.5359661037060211E-05    0.5020771992603201E-11    0.5738887143280635E-10   -0.2497724249650446E-12   -0.9684612400223669E-09
 -0.5710   0.0089    0.6023747744077094E-01    0.9017263743588577E-02    0.2121342323673250E-04    0.3224379980998686E+00   -0.8324995032829355E+01   -0.4845377023089625E-05    0.1240342273334250E-09    0.5323291807357577E-10   -0.2505912144457056E-12   -0.9117427611504691E-09
 -0.5843  -0.0141    0.6491075947362331E-01    0.7850033049310066E-02    0.2575718624474710E-04    0.3378531536699292E+00   -0.7245466502653420E+01   -0.4218550315664050E-05    0.2339033897125198E-09    0.4745137616168904E-10   -0.2508965257774776E-12   -0.8396299992080580E-09
 -0.5969  -0.0360    0.6744184344691476E-01    0.6559093178537011E-02    0.2884869126200904E-04    0.3537481561650364E+00   -0.6053669850710977E+01   -0.3524854045374238E-05    0.3294756065197468E-09    0.4059591551808239E-10   -0.2082778394196794E-12   -0.7571597515632078E-09
 -0.6089  -0.0567    0.6772201415260533E-01    0.5241369732635279E-02    0.3018436114005435E-04    0.3699621525518487E+00   -0.4838503257662897E+01   -0.2816537460408711E-05    0.4077979273708898E-09    0.3331185327581920E-10   -0.2175204460996838E-12   -0.6686858376042659E-09
 -0.6200  -0.0761    0.6591585762064567E-01    0.3988960357279892E-02    0.2973816909092250E-04    0.3863088815746219E+00   -0.3684307997494167E+01   -0.2143155971157602E-05    0.4682670640132613E-09    0.2617503436219693E-10   -0.2210176486272530E-12   -0.5781134668203514E-09
 -0.6304  -0.0941    0.6240023106640415E-01    0.2874518893954412E-02    0.2774596353069857E-04    0.4025720303153256E+00   -0.2657519624374424E+01   -0.1543943477212459E-05    0.5122082549768869E-09    0.1967467855301663E-10   -0.1952604744559494E-12   -0.4889599732049721E-09
 -0.6400  -0.1106    0.5766965769861049E-01    0.1943251272215197E-02    0.2459845554208116E-04    0.4184995074447735E+00   -0.1799516304641094E+01   -0.1043174989578126E-05    0.5421476184652718E-09    0.1407990390944747E-10   -0.1666028426328126E-12   -0.4037550363489295E-09
 -0.6486  -0.1255    0.5224280457089710E-01    0.1212673386111461E-02    0.2071103819131795E-04    0.4338014990564561E+00   -0.1126295509945790E+01   -0.6503946148878822E-06    0.5610982581338853E-09    0.9514243559660684E-11   -0.2060573933704291E-12   -0.3239088979672955E-09
 -0.6563  -0.1389    0.4659577774677946E-01    0.6781458102604105E-03    0.1642028910173926E-04    0.4481583055092881E+00   -0.6336250462180651E+00   -0.3629822761461016E-06    0.5719483185673280E-09    0.5975761335416663E-11   -0.1896816037572080E-12   -0.2515964849653107E-09
 -0.6631  -0.1506    0.4112969263237365E-01    0.3202374955208876E-03    0.1194990924995157E-04    0.4612411855212867E+00   -0.3035120289995900E+00   -0.1706511993155568E-06    0.5772640178369759E-09    0.3411080445880899E-11   -0.1989172715433085E-12   -0.1869523338221546E-09
 -0.6688  -0.1606    0.3616460072347794E-01    0.1105144146403933E-03    0.7486561658349860E-05    0.4727429929224629E+00   -0.1096287048326875E+00   -0.5795920829438621E-07    0.5791505608421232E-09    0.1719731995697416E-11   -0.2101166463042148E-12   -0.1311265679371232E-09
 -0.6736  -0.1688    0.3194297833622883E-01    0.1388899971411177E-04    0.3345072856966662E-05    0.4824087769243481E+00   -0.1915865868925091E-01   -0.6355289846713608E-08    0.5794031799483124E-09    0.7869919993463981E-12   -0.2340003191214635E-12   -0.8422365409266330E-10
 -0.6773  -0.1752    0.2862727515677228E-01   -0.1047411545422187E-04    0.1439564345371535E-06    0.4900545597138915E+00    0.5707087759639672E-02    0.6397592074753398E-08    0.5793786935675074E-09    0.4142519660632615E-12   -0.2529326574574053E-12   -0.4773632530929994E-10
 -0.6799  -0.1798    0.2628767216245355E-01   -0.5208151225837913E-05   -0.1218053381554546E-05    0.4955675479431237E+00    0.4026249618491048E-02    0.2871583522648663E-08    0.5800658130911129E-09    0.3413094459836508E-12   -0.2876522804673431E-12   -0.2130841358395641E-10
 -0.6816  -0.1826    0.2490467350102702E-01   -0.2283712692286232E-06   -0.2282656002405314E-06    0.4988904453923860E+00    0.7515851168578053E-03    0.1945117435959944E-09    0.5813287228982264E-09    0.1906384663845351E-12   -0.2087986901433414E-12   -0.5233978723519217E-11
 -0.6821  -0.1835    0.2444506216779670E-01    0.0000000000000000E+00    0.0000000000000000E+00    0.5000000000000000E+00   -0.3763333719893812E-04    0.0000000000000000E+00    0.0000000000000000E+00    0.0000000000000000E+00    0.0000000000000000E+00    0.0000000000000000E+00
 -0.1793   0.6809    0.2523435409606924E-01    0.0000000000000000E+00    0.0000000000000000E+00   -0.5000000000000000E+00   -0.4875815611841213E-02    0.0000000000000000E+00    0.0000000000000000E+00    0.0000000000000000E+00    0.0000000000000000E+00    0.0000000000000000E+00
 -0.1798   0.6799    0.2568333688375990E-01    0.2555423462022543E-05   -0.7423019074743838E-05   -0.4948756358045030E+00   -0.9565454604831134E-02   -0.3563296114552567E-08    0.3441874832019187E-09   -0.1130623548885497E-11   -0.1539137740869112E-11    0.1484959594524882E-10
 -0.1814   0.6772    0.2699696310250507E-01    0.4185802495813650E-04   -0.4186105352065207E-04   -0.4795276111160938E+00   -0.2285444744197342E-01   -0.8032415044810789E-07    0.3419648349212157E-09   -0.3238187712764629E-11   -0.3788308208796387E-11    0.5921463406416416E-10
 -0.1841   0.6726    0.2910307228329453E-01    0.2105174448100469E-03   -0.9490558942236064E-04   -0.4540509536651448E+00   -0.5528699569007557E-01   -0.4531974333010367E-06    0.3383353042174519E-09   -0.3883103907864616E-11   -0.4751601889729784E-11    0.1332492761962900E-09
 -0.1878   0.6661    0.3194143251438807E-01    0.6021269823897163E-03   -0.1364040871097468E-03   -0.4186770085024692E+00   -0.1293677159670684E+00   -0.1333683688241106E-05    0.3350659610878992E-09   -0.2661818682136996E-11   -0.5045193429698003E-11    0.2373561867885510E-09
 -0.1926   0.6579    0.3544782716852682E-01    0.1225247678356194E-02   -0.1511474623039812E-03   -0.3739012562396009E+00   -0.2534857465335568E+00   -0.2724815196678784E-05    0.3328926578838320E-09   -0.5756367604803359E-12   -0.4961364652444900E-11    0.3714625898543211E-09
 -0.1983   0.6479    0.3948535641051386E-01    0.1990146278193734E-02   -0.1384066005900525E-03   -0.3206706138409416E+00   -0.4131510398561968E+00   -0.4415021988196474E-05    0.3316850821777351E-09    0.1145319949991119E-11   -0.4705805189963996E-11    0.5360708543733494E-09
 -0.2051   0.6362    0.4380398214963793E-01    0.2749026592939946E-02   -0.1054598717498660E-03   -0.2605797562936248E+00   -0.5784025308257347E+00   -0.6073396590515984E-05    0.3306510967804321E-09    0.1355346390674583E-11   -0.4371294992644437E-11    0.7320905479057949E-09
 -0.2128   0.6229    0.4804140125923251E-01    0.3351941847167197E-02   -0.6309716199198788E-04   -0.1959738025549451E+00   -0.7168187979677032E+00   -0.7370677934472148E-05    0.3284489104304900E-09   -0.7429057369279235E-12   -0.4021769028916822E-11    0.9595400446427149E-09