 title="result"
 variables="x","y","P","u","v","t","omega","psi","RES1","RES2","RES3","RES4"
zone,j= 49,i= 49,f=point
 -0.5000   0.5000    0.2263958271744343E-01    0.0000000000000000E+00    0.0000000000000000E+00   -0.5000000000000000E+00    0.0000000000000000E+00    0.0000000000000000E+00    0.0000000000000000E+00    0.0000000000000000E+00    0.0000000000000000E+00    0.0000000000000000E+00
 -0.5000   0.4989    0.2317009052246173E-01    0.0000000000000000E+00    0.0000000000000000E+00   -0.4963847803099898E+00   -0.3797196161633738E-03    0.0000000000000000E+00    0.0000000000000000E+00    0.0000000000000000E+00    0.0000000000000000E+00    0.0000000000000000E+00
 -0.5000   0.4957    0.2475770665073460E-01    0.0000000000000000E+00    0.0000000000000000E+00   -0.4855559375586992E+00   -0.4673080861440861E-02    0.0000000000000000E+00    0.0000000000000000E+00    0.0000000000000000E+00    0.0000000000000000E+00    0.0000000000000000E+00
 -0.5000   0.4904    0.2737132561820708E-01    0.0000000000000000E+00    0.0000000000000000E+00   -0.4675715923971955E+00   -0.1049700661611787E-02    0.0000000000000000E+00    0.0000000000000000E+00    0.0000000000000000E+00    0.0000000000000000E+00    0.0000000000000000E+00
 -0.5000   0.4830    0.3087644746906333E-01    0.0000000000000000E+00    0.0000000000000000E+00   -0.4425513508375685E+00    0.3564780461403422E-01    0.0000000000000000E+00    0.0000000000000000E+00    0.0000000000000000E+00    0.0000000000000000E+00    0.0000000000000000E+00
 -0.5000   0.4735    0.3501100395260277E-01    0.0000000000000000E+00    0.0000000000000000E+00   -0.4106989143167772E+00    0.1217398717989004E+00    0.0000000000000000E+00    0.0000000000000000E+00    0.0000000000000000E+00    0.0000000000000000E+00    0.0000000000000000E+00
 -0.5000   0.4619    0.3943509109851793E-01    0.0000000000000000E+00    0.0000000000000000E+00   -0.3723157067083460E+00    0.2553861277572667E+00    0.0000000000000000E+00    0.0000000000000000E+00    0.0000000000000000E+00    0.0000000000000000E+00    0.0000000000000000E+00
 -0.5000   0.4484    0.4377646473213134E-01    0.0000000000000000E+00    0.0000000000000000E+00   -0.3278087375707608E+00    0.4164649059839969E+00    0.0000000000000000E+00    0.0000000000000000E+00    0.0000000000000000E+00    0.0000000000000000E+00    0.0000000000000000E+00
 -0.5000   0.4330    0.4767565117126586E-01    0.0000000000000000E+00    0.0000000000000000E+00   -0.2777185889658984E+00    0.5709567892782617E+00    0.0000000000000000E+00    0.0000000000000000E+00    0.0000000000000000E+00    0.0000000000000000E+00    0.0000000000000000E+00
 -0.5000   0.4157    0.5082008761651920E-01    0.0000000000000000E+00    0.0000000000000000E+00   -0.2228050466940973E+00    0.6788614955039327E+00    0.0000000000000000E+00    0.0000000000000000E+00    0.0000000000000000E+00    0.0000000000000000E+00    0.0000000000000000E+00
 -0.5000   0.3967    0.5296553290946481E-01    0.0000000000000000E+00    0.0000000000000000E+00   -0.1642122194998908E+00    0.7039681360031455E+00    0.0000000000000000E+00    0.0000000000000000E+00    0.0000000000000000E+00    0.0000000000000000E+00    0.0000000000000000E+00
 -0.5000   0.3759    0.5393883945224844E-01    0.0000000000000000E+00    0.0000000000000000E+00   -0.1036830632945162E+00    0.6227565949466088E+00    0.0000000000000000E+00    0.0000000000000000E+00    0.0000000000000000E+00    0.0000000000000000E+00    0.0000000000000000E+00
 -0.5000   0.3536    0.5363099646415542E-01    0.0000000000000000E+00    0.0000000000000000E+00   -0.4370858941545686E-01    0.4282978252849151E+00    0.0000000000000000E+00    0.0000000000000000E+00    0.0000000000000000E+00    0.0000000000000000E+00    0.0000000000000000E+00
 -0.5000   0.3297    0.5199473495839323E-01    0.0000000000000000E+00    0.0000000000000000E+00    0.1257957853640226E-01    0.1270309859016703E+00    0.0000000000000000E+00    0.0000000000000000E+00    0.0000000000000000E+00    0.0000000000000000E+00    0.0000000000000000E+00
 -0.5000   0.3044    0.4905856145896730E-01    0.0000000000000000E+00    0.0000000000000000E+00    0.6193404029206222E-01   -0.2696280107448136E+00    0.0000000000000000E+00    0.0000000000000000E+00    0.0000000000000000E+00    0.0000000000000000E+00    0.0000000000000000E+00
 -0.5000   0.2778    0.4494745382023921E-01    0.0000000000000000E+00    0.0000000000000000E+00    0.1018668831980026E+00   -0.7533291514439078E+00    0.0000000000000000E+00    0.0000000000000000E+00    0.0000000000000000E+00    0.0000000000000000E+00    0.0000000000000000E+00
 -0.5000   0.2500    0.3988870203844497E-01    0.0000000000000000E+00    0.0000000000000000E+00    0.1314756219452549E+00   -0.1322076885036792E+01    0.0000000000000000E+00    0.0000000000000000E+00    0.0000000000000000E+00    0.0000000000000000E+00    0.0000000000000000E+00
 -0.5000   0.2211    0.3419118070900044E-01    0.0000000000000000E+00    0.0000000000000000E+00    0.1517009941271025E+00   -0.1978286774744404E+01    0.0000000000000000E+00    0.0000000000000000E+00    0.0000000000000000E+00    0.0000000000000000E+00    0.0000000000000000E+00
 -0.5000   0.1913    0.2821174086895567E-01    0.0000000000000000E+00    0.0000000000000000E+00    0.1648194641055462E+00   -0.2723849032756659E+01    0.0000000000000000E+00    0.0000000000000000E+00    0.0000000000000000E+00    0.0000000000000000E+00    0.0000000000000000E+00
 -0.5000   0.1607    0.2232831129296861E-01    0.0000000000000000E+00    0.0000000000000000E+00    0.1735030971724394E+00   -0.3554341272676679E+01    0.0000000000000000E+00    0.0000000000000000E+00    0.0000000000000000E+00    0.0000000000000000E+00    0.0000000000000000E+00
 -0.5000   0.1294    0.1692482320780003E-01    0.0000000000000000E+00    0.0000000000000000E+00    0.1800149322055704E+00   -0.4454323495373233E+01    0.0000000000000000E+00    0.0000000000000000E+00    0.0000000000000000E+00    0.0000000000000000E+00    0.0000000000000000E+00
 -0.5000   0.0975    0.1237713284213260E-01    0.0000000000000000E+00    0.0000000000000000E+00    0.1858727935626748E+00   -0.5395433968121652E+01    0.0000000000000000E+00    0.0000000000000000E+00    0.0000000000000000E+00    0.0000000000000000E+00    0.0000000000000000E+00
 -0.5000   0.0653    0.9029830009996661E-02    0.0000000000000000E+00    0.0000000000000000E+00    0.1919233483898683E+00   -0.6337896080109253E+01    0.0000000000000000E+00    0.0000000000000000E+00    0.0000000000000000E+00    0.0000000000000000E+00    0.0000000000000000E+00
 -0.5000   0.0327    0.7162491401498369E-02    0.0000000000000000E+00    0.0000000000000000E+00    0.1985801752203579E+00   -0.7234368889308001E+01    0.0000000000000000E+00    0.0000000000000000E+00    0.0000000000000000E+00    0.0000000000000000E+00    0.0000000000000000E+00
 -0.5000   0.0000    0.6952113640888202E-02    0.0000000000000000E+00    0.0000000000000000E+00    0.2060355223710679E+00   -0.8034476135735414E+01    0.0000000000000000E+00    0.0000000000000000E+00    0.0000000000000000E+00    0.0000000000000000E+00    0.0000000000000000E+00
 -0.5000  -0.0327    0.8439606275561048E-02    0.0000000000000000E+00    0.0000000000000000E+00    0.2143853744635108E+00   -0.8688806067914436E+01    0.0000000000000000E+00    0.0000000000000000E+00    0.0000000000000000E+00    0.0000000000000000E+00    0.0000000000000000E+00
 -0.5000  -0.0653    0.1150650983725075E-01    0.0000000000000000E+00    0.0000000000000000E+00    0.2236851307198766E+00   -0.9152204885127965E+01    0.0000000000000000E+00    0.0000000000000000E+00    0.0000000000000000E+00    0.0000000000000000E+00    0.0000000000000000E+00
 -0.5000  -0.0975    0.1586570083680896E-01    0.0000000000000000E+00    0.0000000000000000E+00    0.2339683443516495E+00   -0.9386888070323050E+01    0.0000000000000000E+00    0.0000000000000000E+00    0.0000000000000000E+00    0.0000000000000000E+00    0.0000000000000000E+00
 -0.5000  -0.1294    0.2107014468670666E-01    0.0000000000000000E+00    0.0000000000000000E+00    0.2452502247206559E+00   -0.9366090058102030E+01    0.0000000000000000E+00    0.0000000000000000E+00    0.0000000000000000E+00    0.0000000000000000E+00    0.0000000000000000E+00
 -0.5000  -0.1607    0.2654414644559024E-01    0.0000000000000000E+00    0.0000000000000000E+00    0.2575261105921169E+00   -0.9078431447511845E+01    0.0000000000000000E+00    0.0000000000000000E+00    0.0000000000000000E+00    0.0000000000000000E+00    0.0000000000000000E+00
 -0.5000  -0.1913    0.3164039522979133E-01    0.0000000000000000E+00    0.0000000000000000E+00    0.2707690031373793E+00   -0.8532315197101024E+01    0.0000000000000000E+00    0.0000000000000000E+00    0.0000000000000000E+00    0.0000000000000000E+00    0.0000000000000000E+00
 -0.5000  -0.2211    0.3572008893601387E-01    0.0000000000000000E+00    0.0000000000000000E+00    0.2849277939856644E+00   -0.7758736216431751E+01    0.0000000000000000E+00    0.0000000000000000E+00    0.0000000000000000E+00    0.0000000000000000E+00    0.0000000000000000E+00
 -0.5000  -0.2500    0.3824416431516515E-01    0.0000000000000000E+00    0.0000000000000000E+00    0.2999267787412826E+00   -0.6810629402576293E+01    0.0000000000000000E+00    0.0000000000000000E+00    0.0000000000000000E+00    0.0000000000000000E+00    0.0000000000000000E+00
 -0.5000  -0.2778    0.3885464217072877E-01    0.0000000000000000E+00    0.0000000000000000E+00    0.3156662690357001E+00   -0.5757538986430657E+01    0.0000000000000000E+00    0.0000000000000000E+00    0.0000000000000000E+00    0.0000000000000000E+00    0.0000000000000000E+00
 -0.5000  -0.3044    0.3742327094002077E-01    0.0000000000000000E+00    0.0000000000000000E+00    0.3320233457859356E+00   -0.4676073634717484E+01    0.0000000000000000E+00    0.0000000000000000E+00    0.0000000000000000E+00    0.0000000000000000E+00    0.0000000000000000E+00
 -0.5000  -0.3297    0.3405308203293422E-01    0.0000000000000000E+00    0.0000000000000000E+00    0.3488512773344000E+00   -0.3638424191725244E+01    0.0000000000000000E+00    0.0000000000000000E+00    0.0000000000000000E+00    0.0000000000000000E+00    0.0000000000000000E+00
 -0.5000  -0.3536    0.2903482254144838E-01    0.0000000000000000E+00    0.0000000000000000E+00    0.3659763463778615E+00   -0.2702264809612109E+01    0.0000000000000000E+00    0.0000000000000000E+00    0.0000000000000000E+00    0.0000000000000000E+00    0.0000000000000000E+00
 -0.5000  -0.3759    0.2277571914127394E-01    0.0000000000000000E+00    0.0000000000000000E+00    0.3831921604262196E+00   -0.1904801829185114E+01    0.0000000000000000E+00    0.0000000000000000E+00    0.0000000000000000E+00    0.0000000000000000E+00    0.0000000000000000E+00
 -0.5000  -0.3967    0.1572457350359669E-01    0.0000000000000000E+00    0.0000000000000000E+00    0.4002537660185433E+00   -0.1262027381328658E+01    0.0000000000000000E+00    0.0000000000000000E+00    0.0000000000000000E+00    0.0000000000000000E+00    0.0000000000000000E+00
 -0.5000  -0.4157    0.8312793764714770E-02    0.0000000000000000E+00    0.0000000000000000E+00    0.4168759726352402E+00   -0.7722325573106259E+00    0.0000000000000000E+00    0.0000000000000000E+00    0.0000000000000000E+00    0.0000000000000000E+00    0.0000000000000000E+00
 -0.5000  -0.4330    0.9198776826240545E-03    0.0000000000000000E+00    0.0000000000000000E+00    0.4327405993028549E+00   -0.4216666374091322E+00    0.0000000000000000E+00    0.0000000000000000E+00    0.0000000000000000E+00    0.0000000000000000E+00    0.0000000000000000E+00
 -0.5000  -0.4484   -0.6138494939476030E-02    0.0000000000000000E+00    0.0000000000000000E+00    0.4475148048649655E+00   -0.1900861304579554E+00    0.0000000000000000E+00    0.0000000000000000E+00    0.0000000000000000E+00    0.0000000000000000E+00    0.0000000000000000E+00
 -0.5000  -0.4619   -0.1260831241442833E-01    0.0000000000000000E+00    0.0000000000000000E+00    0.4608778880233219E+00   -0.5463843602869451E-01    0.0000000000000000E+00    0.0000000000000000E+00    0.0000000000000000E+00    0.0000000000000000E+00    0.0000000000000000E+00
 -0.5000  -0.4735   -0.1829025829624485E-01    0.0000000000000000E+00    0.0000000000000000E+00    0.4725493575123110E+00    0.8383744291519965E-02    0.0000000000000000E+00    0.0000000000000000E+00    0.0000000000000000E+00    0.0000000000000000E+00    0.0000000000000000E+00
 -0.5000  -0.4830   -0.2303627930668683E-01    0.0000000000000000E+00    0.0000000000000000E+00    0.4823094668862706E+00    0.2333159596576821E-01    0.0000000000000000E+00    0.0000000000000000E+00    0.0000000000000000E+00    0.0000000000000000E+00    0.0000000000000000E+00
 -0.5000  -0.4904   -0.2675129888965260E-01    0.0000000000000000E+00    0.0000000000000000E+00    0.4900060568370187E+00    0.1451093997055481E-01    0.0000000000000000E+00    0.0000000000000000E+00    0.0000000000000000E+00    0.0000000000000000E+00    0.0000000000000000E+00
 -0.5000  -0.4957   -0.2939740493660331E-01    0.0000000000000000E+00    0.0000000000000000E+00    0.4955472722640329E+00    0.3236467954688274E-02    0.0000000000000000E+00    0.0000000000000000E+00    0.0000000000000000E+00    0.0000000000000000E+00    0.0000000000000000E+00
 -0.5000  -0.4989   -0.3098522532474875E-01    0.0000000000000000E+00    0.0000000000000000E+00    0.4988854490095238E+00   -0.1591757216831776E-03    0.0000000000000000E+00    0.0000000000000000E+00    0.0000000000000000E+00    0.0000000000000000E+00    0.0000000000000000E+00
 -0.5000  -0.5000   -0.3151826270791060E-01    0.0000000000000000E+00    0.0000000000000000E+00    0.5000000000000000E+00    0.0000000000000000E+00    0.0000000000000000E+00    0.0000000000000000E+00    0.0000000000000000E+00    0.0000000000000000E+00    0.0000000000000000E+00
 -0.4989   0.5000    0.2264240781571708E-01    0.0000000000000000E+00    0.0000000000000000E+00   -0.5000000000000000E+00   -0.3796838471472710E-03    0.0000000000000000E+00    0.0000000000000000E+00    0.0000000000000000E+00    0.0000000000000000E+00    0.0000000000000000E+00
 -0.4989   0.4989    0.2317291617130171E-01    0.3636894766240870E-06   -0.3637005816690221E-06   -0.4963847131599818E+00   -0.5592891898709362E-03   -0.2589618479171615E-09   -0.4115664481310968E-09   -0.3764438847447815E-12   -0.3854121882751471E-12    0.4783481987249982E-11
 -0.4989   0.4957    0.2475863016251964E-01    0.3298414244289610E-05   -0.4470316427139845E-06   -0.4855556719815028E+00   -0.1427190057225839E-02   -0.2014129149914347E-08   -0.4140388734988343E-09   -0.6922526787911387E-12   -0.5318542796521305E-12    0.1871179968783443E-10
 -0.4989   0.4904    0.2736387213093722E-01   -0.2277432955908749E-05    0.1504610680334455E-05   -0.4675710199594117E+00    0.5466022833076300E-02    0.5993821838962219E-09   -0.4163879930955960E-09   -0.7546237940081468E-12   -0.4943788434186303E-12    0.4186130782291020E-10
 -0.4989   0.4830    0.3085677776182734E-01   -0.4110412432729278E-04    0.3981738877255202E-05   -0.4425504197983281E+00    0.4122671482563786E-01    0.2151869227024618E-07   -0.4183818317834986E-09   -0.7248420613725770E-12   -0.5210172571157301E-12    0.7535967683214295E-10
 -0.4989   0.4735    0.3498173779951846E-01   -0.1306377651299617E-03    0.5978001959613752E-05   -0.4106976338159470E+00    0.1223772425614446E+00    0.6986050171021658E-07   -0.4205551202424163E-09   -0.6165911965033688E-12   -0.5397279845276159E-12    0.1199486204805922E-09
 -0.4989   0.4619    0.3940154503713121E-01   -0.2696371014583879E-03    0.6824524740006127E-05   -0.3723141019141509E+00    0.2483542411322337E+00    0.1450161886432839E-06   -0.4230899762480700E-09   -0.4066191827689636E-12   -0.5611414111150737E-12    0.1782692223006865E-09
 -0.4989   0.4484    0.4374509467894263E-01   -0.4374287552257424E-03    0.6392505565412048E-05   -0.3278067748097488E+00    0.4007274170407032E+00    0.2356265274579020E-06   -0.4263437554385963E-09   -0.6334516244876909E-13   -0.5563952076848011E-12    0.2555539720811018E-09
 -0.4989   0.4330    0.4765235405951509E-01   -0.5984498087357704E-03    0.4738834638817663E-05   -0.2777161055903965E+00    0.5470305377926898E+00    0.3226141396787664E-06   -0.4306620945276896E-09    0.4945627241070838E-12   -0.5511389955525914E-12    0.3565093116553175E-09
 -0.4989   0.4157    0.5080928883557793E-01   -0.7105699742270866E-03    0.2209276487050025E-05   -0.2228017216687667E+00    0.6485893377766940E+00    0.3832147582112906E-06   -0.4365125960345551E-09    0.1380964786967809E-11   -0.5836373051515409E-12    0.4882070477052469E-09
 -0.4989   0.3967    0.5296933633522101E-01   -0.7354255786095156E-03   -0.7588325352442641E-06   -0.1642076176186458E+00    0.6699149814029631E+00    0.3968958060402295E-06   -0.4443990282102656E-09    0.2718006375523885E-11   -0.5753804550867603E-12    0.6524434950638813E-09
 -0.4989   0.3759    0.5395701587326605E-01   -0.6478461531490985E-03   -0.3664198443149662E-05   -0.1036767802930161E+00    0.5875212006059780E+00    0.3501197780419131E-06   -0.4549105077009119E-09    0.4572273115677206E-11   -0.5800256108745572E-12    0.8420408884046715E-09
 -0.4989   0.3536    0.5366154825781138E-01   -0.4400882317616918E-03   -0.6171844967361770E-05   -0.4370049132019178E-01    0.3938497454313659E+00    0.2388521720272562E-06   -0.4685817914240609E-09    0.6920616857364337E-11   -0.5804384750618397E-12    0.1031326316014436E-08
 -0.4989   0.3297    0.5203511094167976E-01   -0.1185842488738331E-03   -0.8152176174824530E-05    0.1258911391963409E-01    0.9448853204765080E-01    0.6657208640565699E-07   -0.4854121479769269E-09    0.9676759393784096E-11   -0.5447656215018526E-12    0.1172667490889623E-08
 -0.4989   0.3044    0.4910667591889691E-01    0.3047895063974491E-03   -0.9717318299528062E-05    0.6194406128369946E-01   -0.2998039221307950E+00   -0.1602628911968537E-06   -0.5041302757191612E-09    0.1274215455371319E-10   -0.4898373373585230E-12    0.1203914523628669E-08
 -0.4989   0.2778    0.4500222170770930E-01    0.8211875949551524E-03   -0.1105744806752103E-04    0.1018761241916818E+00   -0.7808428416040043E+00   -0.4369356235840646E-06   -0.5216160697818495E-09    0.1602659671640083E-10   -0.4496958361244197E-12    0.1070745013487251E-08
 -0.4989   0.2500    0.3994984500968683E-01    0.1428320986662180E-02   -0.1234855483706828E-04    0.1314830007863779E+00   -0.1346353792856916E+01   -0.7622178715614734E-06   -0.5332027250282145E-09    0.1944237826290163E-10   -0.3791619795912027E-12    0.7543741881166355E-09
 -0.4989   0.2211    0.3425876040978224E-01    0.2128453461933499E-02   -0.1364943356128768E-04    0.1517060311047625E+00   -0.1998142277252209E+01   -0.1137404873670030E-05   -0.5339327348308220E-09    0.2289887723883055E-10   -0.2700339951644537E-12    0.2857965392122352E-09
 -0.4989   0.1913    0.2828555795827179E-01    0.2923184963689980E-02   -0.1491688342029560E-04    0.1648223457021581E+00   -0.2737311343905348E+01   -0.1563405267625969E-05   -0.5197588297256583E-09    0.2629912954077440E-10   -0.1633970736492074E-12   -0.2659610795485712E-09
 -0.4989   0.1607    0.2240746002009887E-01    0.3807340651265800E-02   -0.1599984638329999E-04    0.1735044043153297E+00   -0.3558610236642683E+01   -0.2037547881032686E-05   -0.4883290889712288E-09    0.2949503662141861E-10   -0.5881406472951767E-13   -0.8224109553089942E-09
 -0.4989   0.1294    0.1700741008574354E-01    0.4764045430147191E-02   -0.1670549408948788E-04    0.1800152886726658E+00   -0.4445956344763218E+01   -0.2550843882546088E-05   -0.4389534812021534E-09    0.3219590219427637E-10    0.7448208716454019E-13   -0.1323026954701614E-08
 -0.4989   0.0975    0.1246033288744176E-01    0.5762798085673627E-02   -0.1683796936396283E-04    0.1858726556491752E+00   -0.5370725871852579E+01   -0.3087007309412955E-05   -0.3726004088600021E-09    0.3401584569573401E-10    0.1867950238931826E-12   -0.1735968523661549E-08
 -0.4989   0.0653    0.9110117413381682E-02    0.6761146119912526E-02   -0.1626047353520806E-04    0.1919229717567891E+00   -0.6293388252071589E+01   -0.3623278092144317E-05   -0.2915913274725845E-09    0.3455023767084953E-10    0.2856742620238606E-12   -0.2054264004128920E-08
 -0.4989   0.0327    0.7235992224637385E-02    0.7708814609637907E-02   -0.1489607555482318E-04    0.1985796740765083E+00   -0.7167358765533941E+01   -0.4132684949719355E-05   -0.1994647745584555E-09    0.3350464350404536E-10    0.3717165464323102E-12   -0.2284529339140196E-08
 -0.4989   0.0000    0.7014872938905713E-02    0.8552517131819547E-02   -0.1273234556252825E-04    0.2060349373221078E+00   -0.7943464956444319E+01   -0.4586580835142517E-05   -0.1008136386870806E-09    0.3078848287429992E-10    0.3711614349199976E-12   -0.2438546089014726E-08
 -0.4989  -0.0327    0.8487814420798497E-02    0.9240185613288222E-02   -0.9793292285980654E-05    0.2143847159100237E+00   -0.8573843521024163E+01   -0.4956955430392302E-05   -0.7532204027160816E-12    0.2654149122705007E-10    0.3807926196586209E-12   -0.2528746005994731E-08
 -0.4989  -0.0653    0.1153664787238952E-01    0.9724436408180326E-02   -0.6141081537749471E-05    0.2236843994279738E+00   -0.9015125842427798E+01   -0.5218269039125651E-05    0.9555438558461748E-10    0.2108496710562235E-10    0.3249588098608314E-12   -0.2565383253917697E-08
 -0.4989  -0.0975    0.1587475741460757E-01    0.9965835552176044E-02   -0.1874045048515535E-05    0.2339675394810195E+00   -0.9231425622260186E+01   -0.5349237330482864E-05    0.1835007202612149E-09    0.1485733758244123E-10    0.2263354434428599E-12   -0.2557493140008249E-08
 -0.4989  -0.1294    0.2105589248336091E-01    0.9936712640639550E-02    0.2846090112970911E-05    0.2452493465509391E+00   -0.9197813810084812E+01   -0.5334871038161466E-05    0.2595664768192951E-09    0.8364531289828392E-11    0.7607629803896288E-13   -0.2511342593949917E-08
 -0.4989  -0.1607    0.2650555604239292E-01    0.9625707043740139E-02    0.7779887660592057E-05    0.2575251611515913E+00   -0.8904447487934352E+01   -0.5168943920811618E-05    0.3216943204875644E-09    0.2159716849803317E-11   -0.7915890165577366E-13   -0.2432673517488437E-08
 -0.4989  -0.1913    0.3157803793726411E-01    0.9042311335007802E-02    0.1259980900731942E-04    0.2707679857746125E+00   -0.8360656663563642E+01   -0.4856449400402974E-05    0.3696107829520567E-09   -0.3240907542334526E-11   -0.3005234949782221E-12   -0.2326521472001408E-08
 -0.4989  -0.2211    0.3563645271332411E-01    0.8219727055310416E-02    0.1691897601491127E-04    0.2849267122076381E+00   -0.7597476995687913E+01   -0.4415153002488623E-05    0.4046452339867557E-09   -0.7408684776777363E-11   -0.4771322226204688E-12   -0.2196695797485049E-08
 -0.4989  -0.2500    0.3814364254355427E-01    0.7214084335968757E-02    0.2034762800572024E-04    0.2999256346586102E+00   -0.6666833636880821E+01   -0.3875200595392776E-05    0.4296092231959037E-09   -0.1003286342893261E-10   -0.6905309657412317E-12   -0.2047525067896960E-08
 -0.4989  -0.2778    0.3874316365207183E-01    0.6098785843433750E-02    0.2257494841050752E-04    0.3156650620565924E+00   -0.5636317824975295E+01   -0.3276061576915238E-05    0.4480881637958234E-09   -0.1106176261700398E-10   -0.8354567038182381E-12   -0.1883116110962257E-08
 -0.4989  -0.3044    0.3730752908068305E-01    0.4954480144066458E-02    0.2344335010106577E-04    0.3320220725095945E+00   -0.4579983763085584E+01   -0.2661157927946713E-05    0.4635243439077286E-09   -0.1061872811902731E-10   -0.9627298958037045E-12   -0.1707111934451389E-08
 -0.4989  -0.3297    0.3393962427121489E-01    0.3857053632590198E-02    0.2298308418619344E-04    0.3488499336089197E+00   -0.3567417419862243E+01   -0.2071344577273145E-05    0.4785482635161209E-09   -0.9056977390287102E-11   -0.1038710784051489E-11   -0.1523643503031913E-08
 -0.4989  -0.3536    0.2892918574219540E-01    0.2867091788723123E-02    0.2139864930851848E-04    0.3659749319694677E+00   -0.2654122666576156E+01   -0.1539274426540399E-05    0.4945859763405558E-09   -0.6830855325823393E-11   -0.1107169911307437E-11   -0.1337277233393053E-08
 -0.4989  -0.3759    0.2268192108067209E-01    0.2023680476632938E-02    0.1899869336417481E-04    0.3831906856090914E+00   -0.1875922259045589E+01   -0.1085979687169998E-05    0.5117341272953269E-09   -0.4405101283744273E-11   -0.1108960145934645E-11   -0.1151777008837063E-08
 -0.4989  -0.3967    0.1564496873421979E-01    0.1343635051331005E-02    0.1612185764904994E-04    0.4002522579667510E+00   -0.1248227446001441E+01   -0.7205429576302944E-06    0.5292766468156795E-09   -0.2165788381969236E-11   -0.1122629766925343E-11   -0.9716329737313734E-09
 -0.4989  -0.4157    0.8248328106803862E-02    0.8251716592111314E-03    0.1305246256190147E-04    0.4168744785134361E+00   -0.7694290447109113E+00   -0.4419668366110574E-06    0.5460087763864419E-09   -0.3666702358406937E-12   -0.1103790669976235E-11   -0.8001892447262460E-09
 -0.4989  -0.4330    0.8704847752489862E-03    0.4538161872664249E-03    0.9998705116472616E-05    0.4327391832684904E+00   -0.4262203321445635E+00   -0.2425034457590072E-06    0.5609213545032521E-09    0.8904231518780392E-12   -0.1097948121309145E-11   -0.6406243382994781E-09
 -0.4989  -0.4484   -0.6173453968199461E-02    0.2081942784001540E-03    0.7070749210118944E-05    0.4475135380988159E+00   -0.1989367091173342E+00   -0.1106038918416297E-06    0.5732610757619439E-09    0.1617442291212967E-11   -0.1066542687500061E-11   -0.4955598847944387E-09
 -0.4989  -0.4619   -0.1262985881325610E-01    0.6408960611396707E-04    0.4352488977912158E-05    0.4608768337586014E+00   -0.6515911868119136E-01   -0.3333221767635078E-07    0.5828672770130661E-09    0.1910912400537867E-11   -0.1057952336847023E-11   -0.3668083553912127E-09
 -0.4989  -0.4735   -0.1829990760407578E-01   -0.3715693942998904E-05    0.1926656263521375E-05    0.4725485555572432E+00   -0.1522359740473334E-02    0.2931013439415371E-08    0.5898890811581459E-09    0.1912615898991277E-11   -0.1025218104855341E-11   -0.2562851033824365E-09
 -0.4989  -0.4830   -0.2303653394303803E-01   -0.2111142150178439E-04    0.2789341536940868E-07    0.4823089231616695E+00    0.1606287279243000E-01    0.1195413156844820E-07    0.5950530645212459E-09    0.1769327739875592E-11   -0.1044726479805524E-11   -0.1648031607015543E-09
 -0.4989  -0.4904   -0.2674644238900252E-01   -0.1378755721947426E-04   -0.1055875011341512E-05    0.4900057421869444E+00    0.1117791091888025E-01    0.7730991210586982E-08    0.5990982746787582E-09    0.1587364788224743E-11   -0.1014170952079452E-11   -0.9303948323574618E-10
 -0.4989  -0.4957   -0.2939353188284371E-01   -0.3506137570155441E-05   -0.9904564893135196E-06    0.4955471311963153E+00    0.3430505767351226E-02    0.1828531951873388E-08    0.6036207694706114E-09    0.1388121063407299E-11   -0.1067503290624883E-11   -0.4131203484771667E-10
 -0.4989  -0.4989   -0.3098359427070312E-01   -0.6791678872192831E-07   -0.6822019984424680E-07    0.4988854136995691E+00    0.4472282613767201E-03    0.6134768370772796E-10    0.6084462111661387E-09    0.7155533761002419E-12   -0.7338268447759644E-12   -0.1045432447208117E-10
 -0.4989  -0.5000   -0.3151663245150148E-01    0.0000000000000000E+00    0.0000000000000000E+00    0.5000000000000000E+00   -0.1585987032071369E-03    0.0000000000000000E+00    0.0000000000000000E+00    0.0000000000000000E+00    0.0000000000000000E+00    0.0000000000000000E+00
 -0.4957   0.5000    0.2262935094468730E-01    0.0000000000000000E+00    0.0000000000000000E+00   -0.5000000000000000E+00   -0.4673297930966147E-02    0.0000000000000000E+00    0.0000000000000000E+00    0.0000000000000000E+00    0.0000000000000000E+00    0.0000000000000000E+00
 -0.4957   0.4989    0.2316175855219501E-01    0.4471317191513866E-06   -0.3298800990288959E-05   -0.4963837069110776E+00   -0.1427725318628582E-02   -0.2014331210055820E-08   -0.4139669578266322E-09   -0.5313857535417521E-12   -0.6838826380195506E-12    0.4602961241328973E-11
 -0.4957   0.4957    0.2474746674101476E-01   -0.8547785916268664E-06    0.8567244544535432E-06   -0.4855516887236485E+00    0.6810776145341172E-02   -0.1017032375891858E-07   -0.4148900962369639E-09   -0.1625243342684435E-11   -0.1627960787009552E-11    0.1863220515374575E-10
 -0.4957   0.4904    0.2733799762107342E-01   -0.3881307937627167E-04    0.2582018236698093E-04   -0.4675623698181879E+00    0.2138285628257417E-01    0.5699542587037131E-07   -0.4165438965975099E-09   -0.2338031677984187E-11   -0.1982346578555116E-11    0.4199958696798900E-10
 -0.4957   0.4830    0.3080368348248232E-01   -0.1907081388367926E-03    0.6093573458295677E-04   -0.4425360918963460E+00    0.5505743354228593E-01    0.3846802430162521E-06   -0.4183991174355750E-09   -0.2485928997375542E-11   -0.2117018366165624E-11    0.7517532429890394E-10
 -0.4957   0.4735    0.3490416992478920E-01   -0.5211890240601874E-03    0.9005877153049265E-04   -0.4106773919822536E+00    0.1227171593232667E+00    0.1116462671122365E-05   -0.4204615822178681E-09   -0.2212147565822109E-11   -0.2192569042991366E-11    0.1199546677266294E-09
 -0.4957   0.4619    0.3931223242373686E-01   -0.1031762786718446E-02    0.1031734637485039E-03   -0.3722879603616661E+00    0.2271176900547444E+00    0.2250276247919125E-05   -0.4229452829629388E-09   -0.1501031937634068E-11   -0.2260591019931368E-11    0.1784591762560295E-09
 -0.4957   0.4484    0.4366110988642656E-01   -0.1649589453442422E-02    0.9669526793564747E-04   -0.3277740371478207E+00    0.3544249593494747E+00    0.3620958419893841E-05   -0.4261222555368427E-09   -0.2427086309708670E-12   -0.2357353895421355E-11    0.2555077677213191E-09
 -0.4957   0.4330    0.4759020813857077E-01   -0.2242612635504726E-02    0.7163920340686707E-04   -0.2776744382816440E+00    0.4768953549257680E+00    0.4936804572645805E-05   -0.4303457382115461E-09    0.1856757803064824E-11   -0.2485074646063623E-11    0.3566768685958621E-09