 title="result"
 variables="x","y","P","u","v","t","omega","psi","RES1","RES2","RES3","RES4"
zone,j= 49,i= 49,f=point
 -0.5000   0.5000    0.2250693393517303E-01    0.0000000000000000E+00    0.0000000000000000E+00   -0.5000000000000000E+00    0.0000000000000000E+00    0.0000000000000000E+00    0.0000000000000000E+00    0.0000000000000000E+00    0.0000000000000000E+00    0.0000000000000000E+00
 -0.5000   0.4989    0.2303744429143325E-01    0.0000000000000000E+00    0.0000000000000000E+00   -0.4963814789217916E+00   -0.3790195741472621E-03    0.0000000000000000E+00    0.0000000000000000E+00    0.0000000000000000E+00    0.0000000000000000E+00    0.0000000000000000E+00
 -0.5000   0.4957    0.2462504952093668E-01    0.0000000000000000E+00    0.0000000000000000E+00   -0.4855427484499031E+00   -0.4651564226801777E-02    0.0000000000000000E+00    0.0000000000000000E+00    0.0000000000000000E+00    0.0000000000000000E+00    0.0000000000000000E+00
 -0.5000   0.4904    0.2723850029539694E-01    0.0000000000000000E+00    0.0000000000000000E+00   -0.4675419920432690E+00   -0.1011134268065208E-02    0.0000000000000000E+00    0.0000000000000000E+00    0.0000000000000000E+00    0.0000000000000000E+00    0.0000000000000000E+00
 -0.5000   0.4830    0.3074305701066927E-01    0.0000000000000000E+00    0.0000000000000000E+00   -0.4424989647900771E+00    0.3560044156395447E-01    0.0000000000000000E+00    0.0000000000000000E+00    0.0000000000000000E+00    0.0000000000000000E+00    0.0000000000000000E+00
 -0.5000   0.4735    0.3487647537452203E-01    0.0000000000000000E+00    0.0000000000000000E+00   -0.4106176764511551E+00    0.1214039567207227E+00    0.0000000000000000E+00    0.0000000000000000E+00    0.0000000000000000E+00    0.0000000000000000E+00    0.0000000000000000E+00
 -0.5000   0.4619    0.3929877700639074E-01    0.0000000000000000E+00    0.0000000000000000E+00   -0.3722001533823330E+00    0.2545147241559429E+00    0.0000000000000000E+00    0.0000000000000000E+00    0.0000000000000000E+00    0.0000000000000000E+00    0.0000000000000000E+00
 -0.5000   0.4484    0.4363772251223830E-01    0.0000000000000000E+00    0.0000000000000000E+00   -0.3276545409151018E+00    0.4148445409262843E+00    0.0000000000000000E+00    0.0000000000000000E+00    0.0000000000000000E+00    0.0000000000000000E+00    0.0000000000000000E+00
 -0.5000   0.4330    0.4753385543786288E-01    0.0000000000000000E+00    0.0000000000000000E+00   -0.2775234440812908E+00    0.5684835628862742E+00    0.0000000000000000E+00    0.0000000000000000E+00    0.0000000000000000E+00    0.0000000000000000E+00    0.0000000000000000E+00
 -0.5000   0.4157    0.5067457413810628E-01    0.0000000000000000E+00    0.0000000000000000E+00   -0.2225699487586618E+00    0.6755832698791201E+00    0.0000000000000000E+00    0.0000000000000000E+00    0.0000000000000000E+00    0.0000000000000000E+00    0.0000000000000000E+00
 -0.5000   0.3967    0.5281556062649777E-01    0.0000000000000000E+00    0.0000000000000000E+00   -0.1639429575998315E+00    0.7000671044754821E+00    0.0000000000000000E+00    0.0000000000000000E+00    0.0000000000000000E+00    0.0000000000000000E+00    0.0000000000000000E+00
 -0.5000   0.3759    0.5378371726728554E-01    0.0000000000000000E+00    0.0000000000000000E+00   -0.1033914185434980E+00    0.6184747844557683E+00    0.0000000000000000E+00    0.0000000000000000E+00    0.0000000000000000E+00    0.0000000000000000E+00    0.0000000000000000E+00
 -0.5000   0.3536    0.5347046592946585E-01    0.0000000000000000E+00    0.0000000000000000E+00   -0.4341235539952834E-01    0.4238516385775151E+00    0.0000000000000000E+00    0.0000000000000000E+00    0.0000000000000000E+00    0.0000000000000000E+00    0.0000000000000000E+00
 -0.5000   0.3297    0.5182950781751331E-01    0.0000000000000000E+00    0.0000000000000000E+00    0.1285873850064629E-01    0.1225800148388991E+00    0.0000000000000000E+00    0.0000000000000000E+00    0.0000000000000000E+00    0.0000000000000000E+00    0.0000000000000000E+00
 -0.5000   0.3044    0.4889071980658059E-01    0.0000000000000000E+00    0.0000000000000000E+00    0.6217524742454535E-01   -0.2739272046971423E+00    0.0000000000000000E+00    0.0000000000000000E+00    0.0000000000000000E+00    0.0000000000000000E+00    0.0000000000000000E+00
 -0.5000   0.2778    0.4478042569647794E-01    0.0000000000000000E+00    0.0000000000000000E+00    0.1020559650263206E+00   -0.7572233446056257E+00    0.0000000000000000E+00    0.0000000000000000E+00    0.0000000000000000E+00    0.0000000000000000E+00    0.0000000000000000E+00
 -0.5000   0.2500    0.3972677233513642E-01    0.0000000000000000E+00    0.0000000000000000E+00    0.1316093745076096E+00   -0.1325145450042706E+01    0.0000000000000000E+00    0.0000000000000000E+00    0.0000000000000000E+00    0.0000000000000000E+00    0.0000000000000000E+00
 -0.5000   0.2211    0.3403876349154884E-01    0.0000000000000000E+00    0.0000000000000000E+00    0.1517870030150748E+00   -0.1979939480544035E+01    0.0000000000000000E+00    0.0000000000000000E+00    0.0000000000000000E+00    0.0000000000000000E+00    0.0000000000000000E+00
 -0.5000   0.1913    0.2807267392158419E-01    0.0000000000000000E+00    0.0000000000000000E+00    0.1648714879871192E+00   -0.2723376033726892E+01    0.0000000000000000E+00    0.0000000000000000E+00    0.0000000000000000E+00    0.0000000000000000E+00    0.0000000000000000E+00
 -0.5000   0.1607    0.2220527503927019E-01    0.0000000000000000E+00    0.0000000000000000E+00    0.1735351350804298E+00   -0.3550988068577221E+01    0.0000000000000000E+00    0.0000000000000000E+00    0.0000000000000000E+00    0.0000000000000000E+00    0.0000000000000000E+00
 -0.5000   0.1294    0.1681886941026097E-01    0.0000000000000000E+00    0.0000000000000000E+00    0.1800373891944463E+00   -0.4447382784049305E+01    0.0000000000000000E+00    0.0000000000000000E+00    0.0000000000000000E+00    0.0000000000000000E+00    0.0000000000000000E+00
 -0.5000   0.0975    0.1228732660834347E-01    0.0000000000000000E+00    0.0000000000000000E+00    0.1858917467083850E+00   -0.5384350161552712E+01    0.0000000000000000E+00    0.0000000000000000E+00    0.0000000000000000E+00    0.0000000000000000E+00    0.0000000000000000E+00
 -0.5000   0.0653    0.8953078543966304E-02    0.0000000000000000E+00    0.0000000000000000E+00    0.1919416835190135E+00   -0.6322366105800105E+01    0.0000000000000000E+00    0.0000000000000000E+00    0.0000000000000000E+00    0.0000000000000000E+00    0.0000000000000000E+00
 -0.5000   0.0327    0.7093657187226579E-02    0.0000000000000000E+00    0.0000000000000000E+00    0.1985990198522971E+00   -0.7214418065432097E+01    0.0000000000000000E+00    0.0000000000000000E+00    0.0000000000000000E+00    0.0000000000000000E+00    0.0000000000000000E+00
 -0.5000   0.0000    0.6884466435859403E-02    0.0000000000000000E+00    0.0000000000000000E+00    0.2060552177488954E+00   -0.8010495717004005E+01    0.0000000000000000E+00    0.0000000000000000E+00    0.0000000000000000E+00    0.0000000000000000E+00    0.0000000000000000E+00
 -0.5000  -0.0327    0.8365590123333837E-02    0.0000000000000000E+00    0.0000000000000000E+00    0.2144059552959383E+00   -0.8661550355657184E+01    0.0000000000000000E+00    0.0000000000000000E+00    0.0000000000000000E+00    0.0000000000000000E+00    0.0000000000000000E+00
 -0.5000  -0.0653    0.1141873171047721E-01    0.0000000000000000E+00    0.0000000000000000E+00    0.2237065174477996E+00   -0.9122751629819470E+01    0.0000000000000000E+00    0.0000000000000000E+00    0.0000000000000000E+00    0.0000000000000000E+00    0.0000000000000000E+00
 -0.5000  -0.0975    0.1575799975813919E-01    0.0000000000000000E+00    0.0000000000000000E+00    0.2339904118899171E+00   -0.9356565099739955E+01    0.0000000000000000E+00    0.0000000000000000E+00    0.0000000000000000E+00    0.0000000000000000E+00    0.0000000000000000E+00
 -0.5000  -0.1294    0.2093856814935925E-01    0.0000000000000000E+00    0.0000000000000000E+00    0.2452728263194957E+00   -0.9336367757570979E+01    0.0000000000000000E+00    0.0000000000000000E+00    0.0000000000000000E+00    0.0000000000000000E+00    0.0000000000000000E+00
 -0.5000  -0.1607    0.2638763869202437E-01    0.0000000000000000E+00    0.0000000000000000E+00    0.2575490840853928E+00   -0.9050781209127994E+01    0.0000000000000000E+00    0.0000000000000000E+00    0.0000000000000000E+00    0.0000000000000000E+00    0.0000000000000000E+00
 -0.5000  -0.1913    0.3146100841911229E-01    0.0000000000000000E+00    0.0000000000000000E+00    0.2707921659936973E+00   -0.8508041999950326E+01    0.0000000000000000E+00    0.0000000000000000E+00    0.0000000000000000E+00    0.0000000000000000E+00    0.0000000000000000E+00
 -0.5000  -0.2211    0.3552259398519046E-01    0.0000000000000000E+00    0.0000000000000000E+00    0.2849509277924662E+00   -0.7738808402530686E+01    0.0000000000000000E+00    0.0000000000000000E+00    0.0000000000000000E+00    0.0000000000000000E+00    0.0000000000000000E+00
 -0.5000  -0.2500    0.3803508327939639E-01    0.0000000000000000E+00    0.0000000000000000E+00    0.2999496048931479E+00   -0.6795543292646246E+01    0.0000000000000000E+00    0.0000000000000000E+00    0.0000000000000000E+00    0.0000000000000000E+00    0.0000000000000000E+00
 -0.5000  -0.2778    0.3864091521765881E-01    0.0000000000000000E+00    0.0000000000000000E+00    0.3156884226400851E+00   -0.5747259627121792E+01    0.0000000000000000E+00    0.0000000000000000E+00    0.0000000000000000E+00    0.0000000000000000E+00    0.0000000000000000E+00
 -0.5000  -0.3044    0.3721092318107569E-01    0.0000000000000000E+00    0.0000000000000000E+00    0.3320443619845909E+00   -0.4670077394097603E+01    0.0000000000000000E+00    0.0000000000000000E+00    0.0000000000000000E+00    0.0000000000000000E+00    0.0000000000000000E+00
 -0.5000  -0.3297    0.3384626965357742E-01    0.0000000000000000E+00    0.0000000000000000E+00    0.3488706090647825E+00   -0.3635836897399003E+01    0.0000000000000000E+00    0.0000000000000000E+00    0.0000000000000000E+00    0.0000000000000000E+00    0.0000000000000000E+00
 -0.5000  -0.3536    0.2883548670290342E-01    0.0000000000000000E+00    0.0000000000000000E+00    0.3659934286097810E+00   -0.2702055328161018E+01    0.0000000000000000E+00    0.0000000000000000E+00    0.0000000000000000E+00    0.0000000000000000E+00    0.0000000000000000E+00
 -0.5000  -0.3759    0.2258383333220669E-01    0.0000000000000000E+00    0.0000000000000000E+00    0.3832065183796726E+00   -0.1905974127977748E+01    0.0000000000000000E+00    0.0000000000000000E+00    0.0000000000000000E+00    0.0000000000000000E+00    0.0000000000000000E+00
 -0.5000  -0.3967    0.1553877034445253E-01    0.0000000000000000E+00    0.0000000000000000E+00    0.4002651375324870E+00   -0.1263762373533831E+01    0.0000000000000000E+00    0.0000000000000000E+00    0.0000000000000000E+00    0.0000000000000000E+00    0.0000000000000000E+00
 -0.5000  -0.4157    0.8131089782737640E-02    0.0000000000000000E+00    0.0000000000000000E+00    0.4168843934224460E+00   -0.7739574660748565E+00    0.0000000000000000E+00    0.0000000000000000E+00    0.0000000000000000E+00    0.0000000000000000E+00    0.0000000000000000E+00
 -0.5000  -0.4330    0.7402792269527671E-03    0.0000000000000000E+00    0.0000000000000000E+00    0.4327464042734158E+00   -0.4230575343086132E+00    0.0000000000000000E+00    0.0000000000000000E+00    0.0000000000000000E+00    0.0000000000000000E+00    0.0000000000000000E+00
 -0.5000  -0.4484   -0.6317601274995865E-02    0.0000000000000000E+00    0.0000000000000000E+00    0.4475185352890479E+00   -0.1910262551974828E+00    0.0000000000000000E+00    0.0000000000000000E+00    0.0000000000000000E+00    0.0000000000000000E+00    0.0000000000000000E+00
 -0.5000  -0.4619   -0.1278797813276001E-01    0.0000000000000000E+00    0.0000000000000000E+00    0.4608801435983734E+00   -0.5515692127940543E-01    0.0000000000000000E+00    0.0000000000000000E+00    0.0000000000000000E+00    0.0000000000000000E+00    0.0000000000000000E+00
 -0.5000  -0.4735   -0.1847094922436222E-01    0.0000000000000000E+00    0.0000000000000000E+00    0.4725506603574192E+00    0.8174989287802106E-02    0.0000000000000000E+00    0.0000000000000000E+00    0.0000000000000000E+00    0.0000000000000000E+00    0.0000000000000000E+00
 -0.5000  -0.4830   -0.2321796219630979E-01    0.0000000000000000E+00    0.0000000000000000E+00    0.4823101908308044E+00    0.2329485362432155E-01    0.0000000000000000E+00    0.0000000000000000E+00    0.0000000000000000E+00    0.0000000000000000E+00    0.0000000000000000E+00
 -0.5000  -0.4904   -0.2693361869266486E-01    0.0000000000000000E+00    0.0000000000000000E+00    0.4900064318347427E+00    0.1452970737055744E-01    0.0000000000000000E+00    0.0000000000000000E+00    0.0000000000000000E+00    0.0000000000000000E+00    0.0000000000000000E+00
 -0.5000  -0.4957   -0.2957993639824064E-01    0.0000000000000000E+00    0.0000000000000000E+00    0.4955474334767958E+00    0.3248564017416360E-02    0.0000000000000000E+00    0.0000000000000000E+00    0.0000000000000000E+00    0.0000000000000000E+00    0.0000000000000000E+00
 -0.5000  -0.4989   -0.3116775341390727E-01    0.0000000000000000E+00    0.0000000000000000E+00    0.4988854890201200E+00   -0.1586961221082109E-03    0.0000000000000000E+00    0.0000000000000000E+00    0.0000000000000000E+00    0.0000000000000000E+00    0.0000000000000000E+00
 -0.5000  -0.5000   -0.3170077916183191E-01    0.0000000000000000E+00    0.0000000000000000E+00    0.5000000000000000E+00    0.0000000000000000E+00    0.0000000000000000E+00    0.0000000000000000E+00    0.0000000000000000E+00    0.0000000000000000E+00    0.0000000000000000E+00
 -0.4989   0.5000    0.2250975470673305E-01    0.0000000000000000E+00    0.0000000000000000E+00   -0.5000000000000000E+00   -0.3789857482512655E-03    0.0000000000000000E+00    0.0000000000000000E+00    0.0000000000000000E+00    0.0000000000000000E+00    0.0000000000000000E+00
 -0.4989   0.4989    0.2304026561476429E-01    0.3624729746821914E-06   -0.3624849069338259E-06   -0.4963814116560504E+00   -0.5565688520642666E-03   -0.2580637662742284E-09   -0.5508796160121759E-09   -0.3105691159972779E-12   -0.2890728021537337E-12    0.6525411721386432E-11
 -0.4989   0.4957    0.2462596347666485E-01    0.3280227339412060E-05   -0.4432940340275232E-06   -0.4855424824121755E+00   -0.1414616767341771E-02   -0.2003799009935850E-08   -0.5529432327592773E-09   -0.5829460178463641E-12   -0.4434445453558851E-12    0.2498205483626725E-10
 -0.4989   0.4904    0.2723103555894491E-01   -0.2304574406638766E-05    0.1502803354280720E-05   -0.4675414185717407E+00    0.5477514493879175E-02    0.6165701554597286E-09   -0.5551139543695516E-09   -0.6577533656626500E-12   -0.4286033333800177E-12    0.5688296318348551E-10
 -0.4989   0.4830    0.3072338995878723E-01   -0.4103560148304224E-04    0.3970001786285166E-05   -0.4424980318651024E+00    0.4114570847757743E-01    0.2148497591425672E-07   -0.5574044368433784E-09   -0.6003409575017216E-12   -0.4402242459455863E-12    0.1013935454693971E-09
 -0.4989   0.4735    0.3484723511745878E-01   -0.1302652872439497E-03    0.5955922911340432E-05   -0.4106163927765214E+00    0.1220169332707431E+00    0.6966346551163346E-07   -0.5603118594099676E-09   -0.3426116812130231E-12   -0.4629248373522188E-12    0.1598633170285524E-09
 -0.4989   0.4619    0.3926528157687967E-01   -0.2687037056573621E-03    0.6795013163608834E-05   -0.3721985434516993E+00    0.2474817502701128E+00    0.1445165520571559E-06   -0.5638776823940761E-09    0.2019218126037003E-12   -0.4465421088450938E-12    0.2339220414593335E-09
 -0.4989   0.4484    0.4360642245717964E-01   -0.4357104476924215E-03    0.6360302590737569E-05   -0.3276525701680586E+00    0.3991375801266795E+00    0.2347039106781006E-06   -0.5681660662781862E-09    0.1079504541312559E-11   -0.4663908148572204E-12    0.3261320033476345E-09
 -0.4989   0.4330    0.4751063850304445E-01   -0.5958359194990589E-03    0.4709255428091518E-05   -0.2775209489495557E+00    0.5446205702251471E+00    0.3212089323413641E-06   -0.5731950816767473E-09    0.2327409098779043E-11   -0.4845117362872742E-12    0.4387820454199165E-09
 -0.4989   0.4157    0.5066385762123272E-01   -0.7071085446309605E-03    0.2186446518749349E-05   -0.2225666075940923E+00    0.6454009877701457E+00    0.3813534533804023E-06   -0.5791356639042733E-09    0.3959582661750005E-11   -0.4958533583732105E-12    0.5725124541111626E-09
 -0.4989   0.3967    0.5281944601117922E-01   -0.7313065185610672E-03   -0.7732034572637408E-06   -0.1639383353722881E+00    0.6661208622665038E+00    0.3946807782218377E-06   -0.5862253957007041E-09    0.5980771433655718E-11   -0.4931198678559401E-12    0.7219786921086602E-09
 -0.4989   0.3759    0.5380197938429500E-01   -0.6433245585836673E-03   -0.3671115625068042E-05   -0.1033851124689154E+00    0.5833557707337164E+00    0.3476884378558001E-06   -0.5947564741051736E-09    0.8347836311095591E-11   -0.4805184028455756E-12    0.8708074678009936E-09
 -0.4989   0.3536    0.5350111309803163E-01   -0.4353954096589524E-03   -0.6173654863533791E-05   -0.4340423455605647E-01    0.3895287826755575E+00    0.2363282582465359E-06   -0.6047127555641740E-09    0.1098472701688280E-10   -0.4798349217960407E-12    0.9859337513073996E-09
 -0.4989   0.3297    0.5186998941169084E-01   -0.1138945413503928E-03   -0.8150486308774102E-05    0.1286829213269958E-01    0.9017814154826079E-01    0.6404842262642631E-07   -0.6152475629656040E-09    0.1378817893193940E-10   -0.4512987206162222E-12    0.1017962561467023E-08
 -0.4989   0.3044    0.4893894114885626E-01    0.3093035279117397E-03   -0.9711492699282070E-05    0.6218527835994397E-01   -0.3039378331973495E+00   -0.1626949207093600E-06   -0.6239686718700899E-09    0.1664732240946876E-10   -0.4100261796757820E-12    0.9128317407514075E-09
 -0.4989   0.2778    0.4483528588240541E-01    0.8252515593068264E-03   -0.1104490831341441E-04    0.1020652062709978E+00   -0.7845409294777522E+00   -0.4391296415471388E-06   -0.6268589536340130E-09    0.1944153171784535E-10   -0.3320607677714804E-12    0.6343826089438842E-09
 -0.4989   0.2500    0.3978797708616159E-01    0.1431484862578003E-02   -0.1232621717964686E-04    0.1316167460173357E+00   -0.1349195906974002E+01   -0.7639330320215547E-06   -0.6189670512246614E-09    0.2202191207167914E-10   -0.2285671651947041E-12    0.1872465446584037E-09
 -0.4989   0.2211    0.3410636342046666E-01    0.2130089463689853E-02   -0.1361503282815246E-04    0.1517920295288386E+00   -0.1999545850325210E+01   -0.1138304334153857E-05   -0.5958014914764220E-09    0.2422808481616912E-10   -0.1171701624613775E-12   -0.3776593621163116E-09
 -0.4989   0.1913    0.2814646449356832E-01    0.2922540965299035E-02   -0.1486945985027278E-04    0.1648743601440799E+00   -0.2736581080460459E+01   -0.1563085126087653E-05   -0.5545900752523814E-09    0.2589568143251952E-10   -0.2085831507514513E-13   -0.9818198858091431E-09
 -0.4989   0.1607    0.2228435054120692E-01    0.3803620601870653E-02   -0.1593991200069834E-04    0.1735364358048654E+00   -0.3555013480590826E+01   -0.2035579883892782E-05   -0.4946826524798720E-09    0.2679920174664119E-10    0.1035699304097193E-12   -0.1549192787941855E-08
 -0.4989   0.1294    0.1690134158192030E-01    0.4756507533917508E-02   -0.1663515777150254E-04    0.1800377421698322E+00   -0.4438814559520523E+01   -0.2546828290896615E-05   -0.4174927660527405E-09    0.2663962800353303E-10    0.1987576769835186E-12   -0.2029123365209287E-08
 -0.4989   0.0975    0.1237038102781542E-01    0.5750865462462115E-02   -0.1676096582680462E-04    0.1858916072223496E+00   -0.5359516941683899E+01   -0.3080632081096037E-05   -0.3262156482441991E-09    0.2507422741659937E-10    0.3110844914999689E-12   -0.2401544370268446E-08
 -0.4989   0.0653    0.9033204543839178E-02    0.6744512405432676E-02   -0.1618186232747757E-04    0.1919413062897826E+00   -0.6277842883110094E+01   -0.3614376074925446E-05   -0.2254806792667541E-09    0.2183642155983989E-10    0.3968630979400700E-12   -0.2669041407592915E-08
 -0.4989   0.0327    0.7166998864477832E-02    0.7687522317736887E-02   -0.1482171974386915E-04    0.1985985185315732E+00   -0.7147531081388451E+01   -0.4121276091726210E-05   -0.1210286142139250E-09    0.1684813399904783E-10    0.4461292446578113E-12   -0.2845166734155580E-08
 -0.4989   0.0000    0.6947087640772252E-02    0.8526995095316259E-02   -0.1266831317874101E-04    0.2060546326930078E+00   -0.7919764829418743E+01   -0.4572892954206152E-05   -0.1913114111573577E-10    0.1027777862816492E-10    0.4385242169391290E-12   -0.2946036310735867E-08
 -0.4989  -0.0327    0.8413698825846925E-02    0.9211243694427166E-02   -0.9745341602340730E-05    0.2144052968120365E+00   -0.8547029651572823E+01   -0.4941421544535969E-05    0.7397982226819977E-10    0.2548350419573353E-11    0.4147862608938624E-12   -0.2986194468784786E-08
 -0.4989  -0.0653    0.1144882355306820E-01    0.9693221730410874E-02   -0.6114203584108343E-05    0.2237057862672161E+00   -0.8986263522084212E+01   -0.5201504409473693E-05    0.1529446274489699E-09   -0.5794975610484698E-11    0.3646735691198444E-12   -0.2977248987276471E-08
 -0.4989  -0.0975    0.1576707328242263E-01    0.9933753559798844E-02   -0.1871996885947475E-05    0.2339896071542637E+00   -0.9201812695662076E+01   -0.5331997054908805E-05    0.2138445865697280E-09   -0.1407868266412038E-10    0.1991375814247576E-12   -0.2928241571963086E-08
 -0.4989  -0.1294    0.2092439924180004E-01    0.9905312853385343E-02    0.2821348110994513E-05    0.2452719482939843E+00   -0.9168874693171508E+01   -0.5317988965603013E-05    0.2548637091301376E-09   -0.2162608980782466E-10    0.4539597864283706E-13   -0.2845933882653084E-08
 -0.4989  -0.1607    0.2634919258314373E-01    0.9596533918357760E-02    0.7728815176146477E-05    0.2575481347865005E+00   -0.8877596162974655E+01   -0.5153252174090465E-05    0.2764065053229015E-09   -0.2781130881146510E-10   -0.1542793670594733E-12   -0.2735832846725850E-08
 -0.4989  -0.1913    0.3139884118703339E-01    0.9016729089955572E-02    0.1252578815513044E-04    0.2707911487647469E+00   -0.8337136767367634E+01   -0.4842684108644455E-05    0.2811711939665340E-09   -0.3206124254973020E-10   -0.3691283390061528E-12   -0.2602162339770953E-08
 -0.4989  -0.2211    0.3543916895921118E-01    0.8198742697126244E-02    0.1682840656547302E-04    0.2849498461471299E+00   -0.7578201490730261E+01   -0.4403858410449483E-05    0.2738604620855511E-09   -0.3403094472886892E-10   -0.5947048409282729E-12   -0.2448587065745356E-08
 -0.4989  -0.2500    0.3793476272449350E-01    0.7198208031741452E-02    0.2024932576956775E-04    0.2999484609638398E+00   -0.6652259274457799E+01   -0.3866653610317338E-05    0.2603168583470428E-09   -0.3361438905002956E-10   -0.8069933610244107E-12   -0.2278265739258378E-08
 -0.4989  -0.2778    0.3852959593731350E-01    0.6087971188401009E-02    0.2247880987098672E-04    0.3156872158682370E+00   -0.5626392883757600E+01   -0.3270238899511243E-05    0.2464225073994797E-09   -0.3098860057448860E-10   -0.9370698661470556E-12   -0.2094717349229724E-08
 -0.4989  -0.3044    0.3709527239427814E-01    0.4948170496527296E-02    0.2335853176653810E-04    0.3320430889995332E+00   -0.4574191941755073E+01   -0.2657760971813919E-05    0.2369925783396454E-09   -0.2664773957050670E-10   -0.1069339061743335E-11   -0.1900265599388828E-08
 -0.4989  -0.3297    0.3373282029609461E-01    0.3854327451187046E-02    0.2291630495018877E-04    0.3488692657168252E+00   -0.3564911302565756E+01   -0.2069877456558492E-05    0.2348180816458267E-09   -0.2127312215272070E-10   -0.1172464902943204E-11   -0.1698880472064679E-08
 -0.4989  -0.3536    0.2872977539550759E-01    0.2866865110258073E-02    0.2135313930139565E-04    0.3659920146131999E+00   -0.2653908320397467E+01   -0.1539153460529387E-05    0.2404337631767284E-09   -0.1560765405805853E-10   -0.1208325106638597E-11   -0.1494399664778157E-08
 -0.4989  -0.3759    0.2248989081462352E-01    0.2024907381266927E-02    0.1897414915104005E-04    0.3832050438919201E+00   -0.1877041775785521E+01   -0.1086641320586583E-05    0.2524998612973839E-09   -0.1030837915028116E-10   -0.1234151669748940E-11   -0.1290493715361274E-08
 -0.4989  -0.3967    0.1545897306762681E-01    0.1345455659772422E-02    0.1611518237650865E-04    0.4002636295683714E+00   -0.1249893471067490E+01   -0.7215239895346363E-06    0.2686040799504408E-09   -0.5842125394561748E-11   -0.1228406265596504E-11   -0.1091445720260986E-08
 -0.4989  -0.4157    0.8066409431405854E-02    0.8269845404454205E-03    0.1305897785373442E-04    0.4168828990026983E+00   -0.7710908080867717E+00   -0.4429431483748635E-06    0.2860529903225828E-09   -0.2432476095548530E-11   -0.1213161515689620E-11   -0.9005803342648777E-09
 -0.4989  -0.4330    0.6906746916422579E-03    0.4552810396282426E-03    0.1001323681020240E-04    0.4327449874985300E+00   -0.4275659739205921E+00   -0.2432918450560420E-06    0.3026569481145991E-09   -0.1037798319503125E-12   -0.1177218045267381E-11   -0.7224133513616948E-09
 -0.4989  -0.4484   -0.6352746760286421E-02    0.2091882726501135E-03    0.7088483816936667E-05    0.4475172674155852E+00   -0.1998535760011247E+00   -0.1111381143155666E-06    0.3169094361932245E-09    0.1273842142879289E-11   -0.1151245765385056E-11   -0.5595039119510314E-09
 -0.4989  -0.4619   -0.1280966873203493E-01    0.6464303395694947E-04    0.4369340550416986E-05    0.4608790880554355E+00   -0.6567460635408966E-01   -0.3362879451632403E-07    0.3282133662074749E-09    0.1911713842783769E-11   -0.1141121919179255E-11   -0.4144470183709004E-09
 -0.4989  -0.4735   -0.1848068956985749E-01   -0.3486031807542826E-05    0.1939588895384776E-05    0.4725498571974659E+00   -0.1742858621775894E-02    0.2809218992479084E-08    0.3365353234800750E-09    0.2056441822384514E-11   -0.1096043394932522E-11   -0.2899022116115146E-09
 -0.4989  -0.4830   -0.2321825322814674E-01   -0.2106244220577371E-04    0.3506888015772856E-07    0.4823096461719356E+00    0.1600791086332387E-01    0.1192951687695742E-07    0.3425749370864015E-09    0.1933269516696257E-11   -0.1109401307798630E-11   -0.1863679904845483E-09
 -0.4989  -0.4904   -0.2692875608808789E-01   -0.1379956749413920E-04   -0.1054416286518976E-05    0.4900061166032997E+00    0.1118120630567152E-01    0.7738935697973037E-08    0.3471532026688012E-09    0.1728725669558617E-11   -0.1074983418253295E-11   -0.1051278729867489E-09
 -0.4989  -0.4957   -0.2957604623211895E-01   -0.3516101483971647E-05   -0.9924163296086671E-06    0.4955472921410452E+00    0.3437056188599444E-02    0.1834245098694598E-08    0.3520675331131207E-09    0.1493214081028926E-11   -0.1130812891242394E-11   -0.4658163080522443E-10
 -0.4989  -0.4989   -0.3116611070233507E-01   -0.6863787186437436E-07   -0.6894048326977649E-07    0.4988854536427205E+00    0.4487443657548342E-03    0.6187594354818137E-10    0.3572550995810907E-09    0.7827025702913937E-12   -0.7895648111017062E-12   -0.1195554099513510E-10
 -0.4989  -0.5000   -0.3169913724957475E-01    0.0000000000000000E+00    0.0000000000000000E+00    0.5000000000000000E+00   -0.1581205056095552E-03    0.0000000000000000E+00    0.0000000000000000E+00    0.0000000000000000E+00    0.0000000000000000E+00    0.0000000000000000E+00
 -0.4957   0.5000    0.2249668224698609E-01    0.0000000000000000E+00    0.0000000000000000E+00   -0.5000000000000000E+00   -0.4651784288087562E-02    0.0000000000000000E+00    0.0000000000000000E+00    0.0000000000000000E+00    0.0000000000000000E+00    0.0000000000000000E+00
 -0.4957   0.4989    0.2302909765733034E-01    0.4433922340240306E-06   -0.3280611572762265E-05   -0.4963804036649567E+00   -0.1415144252226036E-02   -0.2003999732463135E-08   -0.5528665596079424E-09   -0.4356884861569932E-12   -0.5520844198469987E-12    0.6378136408781432E-11
 -0.4957   0.4957    0.2461478976071035E-01   -0.8804004047462822E-06    0.8823171975058149E-06   -0.4855384921994521E+00    0.6798488224843767E-02   -0.1007383347306426E-07   -0.5536515594942171E-09   -0.1372486759659841E-11   -0.1308906975860946E-11    0.2539898326381351E-10
 -0.4957   0.4904    0.2720515232647622E-01   -0.3878955332385689E-04    0.2577345831882054E-04   -0.4675327527126096E+00    0.2132559879880210E-01    0.5706301592730901E-07   -0.5552189524110629E-09   -0.1973500356189373E-11   -0.1622101758469441E-11    0.5676761578171652E-10
 -0.4957   0.4830    0.3067031830193877E-01   -0.1902607579752768E-03    0.6074855636377655E-04   -0.4424836751789506E+00    0.5488866713440911E-01    0.3838795203126197E-06   -0.5573211787901489E-09   -0.1919567803321254E-11   -0.1822923756389372E-11    0.1013671022120910E-09
 -0.4957   0.4735    0.3476974764176138E-01   -0.5195750217196809E-03    0.8971976708778622E-04   -0.4105961027177674E+00    0.1222935600751664E+00    0.1113123936028673E-05   -0.5600470365241250E-09   -0.1012802255256906E-11   -0.2004733185012597E-11    0.1598478155395711E-09
 -0.4957   0.4619    0.3917611474502725E-01   -0.1028040696385695E-02    0.1027216898378672E-03   -0.3721723247214686E+00    0.2262465029808247E+00    0.2242305048408569E-05   -0.5634700414591798E-09    0.9969837455603425E-12   -0.2187642428319592E-11    0.2340986380439114E-09
 -0.4957   0.4484    0.4352263737532695E-01   -0.1642919326607223E-02    0.9620146481833208E-04   -0.3276197140829275E+00    0.3529265668830936E+00    0.3606506402909127E-05   -0.5676240658059051E-09    0.4301822786878517E-11   -0.2346067784486650E-11    0.3262355420530216E-09
 -0.4957   0.4330    0.4744872304199323E-01   -0.2232562732454602E-02    0.7118347643098445E-04   -0.2774791094027718E+00    0.4746712559273751E+00    0.4914937070970023E-05   -0.5725432489223081E-09    0.9038783610471057E-11   -0.2468275583922264E-11    0.4390492552852621E-09