 title="result"
 variables="x","y","P","u","v","t","omega","psi","RES1","RES2","RES3","RES4"
zone,j= 49,i= 49,f=point
 -0.2464   0.6628    0.2498748021586558E-01    0.0000000000000000E+00    0.0000000000000000E+00   -0.5000000000000000E+00    0.0000000000000000E+00    0.0000000000000000E+00    0.0000000000000000E+00    0.0000000000000000E+00    0.0000000000000000E+00    0.0000000000000000E+00
 -0.2468   0.6618    0.2547142401758335E-01    0.0000000000000000E+00    0.0000000000000000E+00   -0.4951168735771797E+00    0.3567824835029362E-03    0.0000000000000000E+00    0.0000000000000000E+00    0.0000000000000000E+00    0.0000000000000000E+00    0.0000000000000000E+00
 -0.2482   0.6589    0.2687273413567671E-01    0.0000000000000000E+00    0.0000000000000000E+00   -0.4804912763605206E+00   -0.4558924867272190E-02    0.0000000000000000E+00    0.0000000000000000E+00    0.0000000000000000E+00    0.0000000000000000E+00    0.0000000000000000E+00
 -0.2504   0.6541    0.2911380276552340E-01    0.0000000000000000E+00    0.0000000000000000E+00   -0.4562121575672318E+00   -0.3823906810378291E-01    0.0000000000000000E+00    0.0000000000000000E+00    0.0000000000000000E+00    0.0000000000000000E+00    0.0000000000000000E+00
 -0.2535   0.6473    0.3214239103149726E-01    0.0000000000000000E+00    0.0000000000000000E+00   -0.4224901242753047E+00   -0.1163608052491614E+00    0.0000000000000000E+00    0.0000000000000000E+00    0.0000000000000000E+00    0.0000000000000000E+00    0.0000000000000000E+00
 -0.2574   0.6387    0.3586628667990019E-01    0.0000000000000000E+00    0.0000000000000000E+00   -0.3797616600862080E+00   -0.2338808700412635E+00    0.0000000000000000E+00    0.0000000000000000E+00    0.0000000000000000E+00    0.0000000000000000E+00    0.0000000000000000E+00
 -0.2622   0.6282    0.4010423536309171E-01    0.0000000000000000E+00    0.0000000000000000E+00   -0.3288396514484963E+00   -0.3708897828026246E+00    0.0000000000000000E+00    0.0000000000000000E+00    0.0000000000000000E+00    0.0000000000000000E+00    0.0000000000000000E+00
 -0.2678   0.6159    0.4457320805503482E-01    0.0000000000000000E+00    0.0000000000000000E+00   -0.2710772059522877E+00   -0.5004158104736135E+00    0.0000000000000000E+00    0.0000000000000000E+00    0.0000000000000000E+00    0.0000000000000000E+00    0.0000000000000000E+00
 -0.2743   0.6019    0.4889666260838709E-01    0.0000000000000000E+00    0.0000000000000000E+00   -0.2084754599982038E+00   -0.5977513667441282E+00    0.0000000000000000E+00    0.0000000000000000E+00    0.0000000000000000E+00    0.0000000000000000E+00    0.0000000000000000E+00
 -0.2815   0.5862    0.5264267002411171E-01    0.0000000000000000E+00    0.0000000000000000E+00   -0.1436542275340064E+00   -0.6499463160699189E+00    0.0000000000000000E+00    0.0000000000000000E+00    0.0000000000000000E+00    0.0000000000000000E+00    0.0000000000000000E+00
 -0.2894   0.5689    0.5538638650758950E-01    0.0000000000000000E+00    0.0000000000000000E+00   -0.7964043096035356E-01   -0.6634031324586940E+00    0.0000000000000000E+00    0.0000000000000000E+00    0.0000000000000000E+00    0.0000000000000000E+00    0.0000000000000000E+00
 -0.2980   0.5500    0.5679002246918292E-01    0.0000000000000000E+00    0.0000000000000000E+00   -0.1950350130871324E-01   -0.6653116905207204E+00    0.0000000000000000E+00    0.0000000000000000E+00    0.0000000000000000E+00    0.0000000000000000E+00    0.0000000000000000E+00
 -0.3074   0.5297    0.5667119916213287E-01    0.0000000000000000E+00    0.0000000000000000E+00    0.3406937336828328E-01   -0.6960409306321342E+00    0.0000000000000000E+00    0.0000000000000000E+00    0.0000000000000000E+00    0.0000000000000000E+00    0.0000000000000000E+00
 -0.3173   0.5079    0.5502931985788259E-01    0.0000000000000000E+00    0.0000000000000000E+00    0.7915463034780632E-01   -0.7953555143686176E+00    0.0000000000000000E+00    0.0000000000000000E+00    0.0000000000000000E+00    0.0000000000000000E+00    0.0000000000000000E+00
 -0.3278   0.4849    0.5201656306282791E-01    0.0000000000000000E+00    0.0000000000000000E+00    0.1148555656914133E+00   -0.9908517923808344E+00    0.0000000000000000E+00    0.0000000000000000E+00    0.0000000000000000E+00    0.0000000000000000E+00    0.0000000000000000E+00
 -0.3389   0.4608    0.4787756863449302E-01    0.0000000000000000E+00    0.0000000000000000E+00    0.1413941580893912E+00   -0.1295503789122242E+01    0.0000000000000000E+00    0.0000000000000000E+00    0.0000000000000000E+00    0.0000000000000000E+00    0.0000000000000000E+00
 -0.3505   0.4355    0.4289498032074635E-01    0.0000000000000000E+00    0.0000000000000000E+00    0.1599868208682641E+00   -0.1712857959440498E+01    0.0000000000000000E+00    0.0000000000000000E+00    0.0000000000000000E+00    0.0000000000000000E+00    0.0000000000000000E+00
 -0.3625   0.4093    0.3736225278253801E-01    0.0000000000000000E+00    0.0000000000000000E+00    0.1725020184068667E+00   -0.2242726107387516E+01    0.0000000000000000E+00    0.0000000000000000E+00    0.0000000000000000E+00    0.0000000000000000E+00    0.0000000000000000E+00
 -0.3749   0.3822    0.3157838090060933E-01    0.0000000000000000E+00    0.0000000000000000E+00    0.1809916454502599E+00   -0.2882523814636753E+01    0.0000000000000000E+00    0.0000000000000000E+00    0.0000000000000000E+00    0.0000000000000000E+00    0.0000000000000000E+00
 -0.3877   0.3543    0.2585171567989528E-01    0.0000000000000000E+00    0.0000000000000000E+00    0.1872653887450097E+00   -0.3625065233827574E+01    0.0000000000000000E+00    0.0000000000000000E+00    0.0000000000000000E+00    0.0000000000000000E+00    0.0000000000000000E+00
 -0.4007   0.3259    0.2050268397657988E-01    0.0000000000000000E+00    0.0000000000000000E+00    0.1926539581696318E+00   -0.4455902924546724E+01    0.0000000000000000E+00    0.0000000000000000E+00    0.0000000000000000E+00    0.0000000000000000E+00    0.0000000000000000E+00
 -0.4140   0.2969    0.1586002980215265E-01    0.0000000000000000E+00    0.0000000000000000E+00    0.1979914023126048E+00   -0.5352253770130580E+01    0.0000000000000000E+00    0.0000000000000000E+00    0.0000000000000000E+00    0.0000000000000000E+00    0.0000000000000000E+00
 -0.4274   0.2675    0.1224715880888937E-01    0.0000000000000000E+00    0.0000000000000000E+00    0.2037359221766447E+00   -0.6283821426391135E+01    0.0000000000000000E+00    0.0000000000000000E+00    0.0000000000000000E+00    0.0000000000000000E+00    0.0000000000000000E+00
 -0.4410   0.2379    0.9959970255953961E-02    0.0000000000000000E+00    0.0000000000000000E+00    0.2101201215128229E+00   -0.7214877974966946E+01    0.0000000000000000E+00    0.0000000000000000E+00    0.0000000000000000E+00    0.0000000000000000E+00    0.0000000000000000E+00
 -0.4546   0.2082    0.9240302912534864E-02    0.0000000000000000E+00    0.0000000000000000E+00    0.2172640642999626E+00   -0.8106555912664309E+01    0.0000000000000000E+00    0.0000000000000000E+00    0.0000000000000000E+00    0.0000000000000000E+00    0.0000000000000000E+00
 -0.4682   0.1785    0.1024977828718230E-01    0.0000000000000000E+00    0.0000000000000000E+00    0.2252381451389210E+00   -0.8918526392349401E+01    0.0000000000000000E+00    0.0000000000000000E+00    0.0000000000000000E+00    0.0000000000000000E+00    0.0000000000000000E+00
 -0.4818   0.1489    0.1304595128041811E-01    0.0000000000000000E+00    0.0000000000000000E+00    0.2340901866116461E+00   -0.9609794372231818E+01    0.0000000000000000E+00    0.0000000000000000E+00    0.0000000000000000E+00    0.0000000000000000E+00    0.0000000000000000E+00
 -0.4952   0.1195    0.1756102241850604E-01    0.0000000000000000E+00    0.0000000000000000E+00    0.2438538715102297E+00   -0.1013910799887458E+02    0.0000000000000000E+00    0.0000000000000000E+00    0.0000000000000000E+00    0.0000000000000000E+00    0.0000000000000000E+00
 -0.5085   0.0906    0.2358342611181460E-01    0.0000000000000000E+00    0.0000000000000000E+00    0.2545491883599491E+00   -0.1046595808044202E+02    0.0000000000000000E+00    0.0000000000000000E+00    0.0000000000000000E+00    0.0000000000000000E+00    0.0000000000000000E+00
 -0.5215   0.0621    0.3074620106601430E-01    0.0000000000000000E+00    0.0000000000000000E+00    0.2661798642324816E+00   -0.1055328131005420E+02    0.0000000000000000E+00    0.0000000000000000E+00    0.0000000000000000E+00    0.0000000000000000E+00    0.0000000000000000E+00
 -0.5343   0.0343    0.3853029091780508E-01    0.0000000000000000E+00    0.0000000000000000E+00    0.2787299004803599E+00   -0.1037249257669100E+02    0.0000000000000000E+00    0.0000000000000000E+00    0.0000000000000000E+00    0.0000000000000000E+00    0.0000000000000000E+00
 -0.5467   0.0072    0.4629377758002425E-01    0.0000000000000000E+00    0.0000000000000000E+00    0.2921603252470777E+00   -0.9910519219152857E+01    0.0000000000000000E+00    0.0000000000000000E+00    0.0000000000000000E+00    0.0000000000000000E+00    0.0000000000000000E+00
 -0.5587  -0.0191    0.5333493922949672E-01    0.0000000000000000E+00    0.0000000000000000E+00    0.3064069622603945E+00   -0.9177113187946786E+01    0.0000000000000000E+00    0.0000000000000000E+00    0.0000000000000000E+00    0.0000000000000000E+00    0.0000000000000000E+00
 -0.5703  -0.0443    0.5898662116273073E-01    0.0000000000000000E+00    0.0000000000000000E+00    0.3213797160207565E+00   -0.8209611589054298E+01    0.0000000000000000E+00    0.0000000000000000E+00    0.0000000000000000E+00    0.0000000000000000E+00    0.0000000000000000E+00
 -0.5813  -0.0685    0.6272366143510642E-01    0.0000000000000000E+00    0.0000000000000000E+00    0.3369633050337769E+00   -0.7072149988438225E+01    0.0000000000000000E+00    0.0000000000000000E+00    0.0000000000000000E+00    0.0000000000000000E+00    0.0000000000000000E+00
 -0.5919  -0.0915    0.6425262566018634E-01    0.0000000000000000E+00    0.0000000000000000E+00    0.3530185677738701E+00   -0.5847927482029668E+01    0.0000000000000000E+00    0.0000000000000000E+00    0.0000000000000000E+00    0.0000000000000000E+00    0.0000000000000000E+00
 -0.6018  -0.1132    0.6355346197165154E-01    0.0000000000000000E+00    0.0000000000000000E+00    0.3693827685753357E+00   -0.4625892898442860E+01    0.0000000000000000E+00    0.0000000000000000E+00    0.0000000000000000E+00    0.0000000000000000E+00    0.0000000000000000E+00
 -0.6111  -0.1336    0.6085922076470600E-01    0.0000000000000000E+00    0.0000000000000000E+00    0.3858673569567693E+00   -0.3485941353083654E+01    0.0000000000000000E+00    0.0000000000000000E+00    0.0000000000000000E+00    0.0000000000000000E+00    0.0000000000000000E+00
 -0.6198  -0.1524    0.5658467035836881E-01    0.0000000000000000E+00    0.0000000000000000E+00    0.4022529540454399E+00   -0.2487382679394322E+01    0.0000000000000000E+00    0.0000000000000000E+00    0.0000000000000000E+00    0.0000000000000000E+00    0.0000000000000000E+00
 -0.6277  -0.1698    0.5123270803146444E-01    0.0000000000000000E+00    0.0000000000000000E+00    0.4182839132219873E+00   -0.1663905341538494E+01    0.0000000000000000E+00    0.0000000000000000E+00    0.0000000000000000E+00    0.0000000000000000E+00    0.0000000000000000E+00
 -0.6349  -0.1855    0.4530997620260992E-01    0.0000000000000000E+00    0.0000000000000000E+00    0.4336674414984622E+00   -0.1025151026795709E+01    0.0000000000000000E+00    0.0000000000000000E+00    0.0000000000000000E+00    0.0000000000000000E+00    0.0000000000000000E+00
 -0.6413  -0.1995    0.3927113101878218E-01    0.0000000000000000E+00    0.0000000000000000E+00    0.4480828416062889E+00   -0.5626323062735474E+00    0.0000000000000000E+00    0.0000000000000000E+00    0.0000000000000000E+00    0.0000000000000000E+00    0.0000000000000000E+00
 -0.6469  -0.2118    0.3349513282437982E-01    0.0000000000000000E+00    0.0000000000000000E+00    0.4612032574359524E+00   -0.2564339339795064E+00    0.0000000000000000E+00    0.0000000000000000E+00    0.0000000000000000E+00    0.0000000000000000E+00    0.0000000000000000E+00
 -0.6517  -0.2222    0.2828358223164689E-01    0.0000000000000000E+00    0.0000000000000000E+00    0.4727260278546209E+00   -0.8005014684272228E-01    0.0000000000000000E+00    0.0000000000000000E+00    0.0000000000000000E+00    0.0000000000000000E+00    0.0000000000000000E+00
 -0.6557  -0.2309    0.2386597170243553E-01    0.0000000000000000E+00    0.0000000000000000E+00    0.4824018633175374E+00   -0.1963894784962050E-02    0.0000000000000000E+00    0.0000000000000000E+00    0.0000000000000000E+00    0.0000000000000000E+00    0.0000000000000000E+00
 -0.6588  -0.2376    0.2039789067389850E-01    0.0000000000000000E+00    0.0000000000000000E+00    0.4900518562117998E+00    0.1386349758920258E-01    0.0000000000000000E+00    0.0000000000000000E+00    0.0000000000000000E+00    0.0000000000000000E+00    0.0000000000000000E+00
 -0.6610  -0.2425    0.1795019194791902E-01    0.0000000000000000E+00    0.0000000000000000E+00    0.4955665547519197E+00    0.5380937538495386E-02    0.0000000000000000E+00    0.0000000000000000E+00    0.0000000000000000E+00    0.0000000000000000E+00    0.0000000000000000E+00
 -0.6624  -0.2454    0.1650181325663715E-01    0.0000000000000000E+00    0.0000000000000000E+00    0.4988902092415498E+00   -0.5642537967943790E-04    0.0000000000000000E+00    0.0000000000000000E+00    0.0000000000000000E+00    0.0000000000000000E+00    0.0000000000000000E+00
 -0.6628  -0.2464    0.1601910059105900E-01    0.0000000000000000E+00    0.0000000000000000E+00    0.5000000000000000E+00    0.0000000000000000E+00    0.0000000000000000E+00    0.0000000000000000E+00    0.0000000000000000E+00    0.0000000000000000E+00    0.0000000000000000E+00
 -0.2454   0.6624    0.2521070913774184E-01    0.0000000000000000E+00    0.0000000000000000E+00   -0.5000000000000000E+00    0.3570321877454002E-03    0.0000000000000000E+00    0.0000000000000000E+00    0.0000000000000000E+00    0.0000000000000000E+00    0.0000000000000000E+00
 -0.2458   0.6614    0.2569356591683596E-01    0.2812219189581687E-07   -0.2796382639423196E-07   -0.4951167301349766E+00   -0.6542925162049246E-03   -0.5741117724509872E-11    0.1183323326424315E-08    0.4729450338303298E-12    0.4527281327604271E-12   -0.1070618040836108E-10
 -0.2472   0.6585    0.2709658291398157E-01    0.6315279135226715E-05   -0.2060114166230779E-05   -0.4804906945981809E+00   -0.7677778363126395E-02   -0.3103182411745824E-08    0.1186633202289455E-08    0.8800260867247722E-12    0.6585166439920798E-12   -0.4403404984393289E-10
 -0.2494   0.6536    0.2934042977360982E-01    0.4094433868804840E-04   -0.4813223153154390E-05   -0.4562107971594244E+00   -0.3847830456324958E-01   -0.2196651136448571E-07    0.1190401232448179E-08    0.7912459749903622E-12    0.6714906408689103E-12   -0.9947041107460919E-10
 -0.2525   0.6469    0.3236308629094952E-01    0.1209203648747910E-03   -0.6571274477887780E-05   -0.4224875688784184E+00   -0.1097391696553840E+00   -0.6535139603545004E-07    0.1194086111239168E-08    0.1491549939114378E-12    0.6785440265222320E-12   -0.1751153770601643E-09
 -0.2564   0.6382    0.3607004278760871E-01    0.2425825471330447E-03   -0.7038907385264353E-05   -0.3797574539260659E+00   -0.2194347300442674E+00   -0.1312351683160643E-06    0.1197300777619481E-08   -0.1153729889402655E-11    0.7395056789150090E-12   -0.2714061579645044E-09
 -0.2612   0.6277    0.4028151817340273E-01    0.3857929913574328E-03   -0.6221423558481705E-05   -0.3288334006099889E+00   -0.3499541938458504E+00   -0.2084843050360462E-06    0.1199087334632920E-08   -0.3008190918585285E-11    0.7518187461474923E-12   -0.3840020731948890E-09
 -0.2669   0.6155    0.4471680633601404E-01    0.5225392093021041E-03   -0.4609684933720646E-05   -0.2710687129388136E+00   -0.4758795165293712E+00   -0.2820354318374129E-06    0.1198857613876614E-08   -0.5127842594987442E-11    0.7096580267873520E-12   -0.5061131375105887E-09
 -0.2733   0.6015    0.4900289478638119E-01    0.6268270919283418E-03   -0.2664259724948661E-05   -0.2084648375738734E+00   -0.5733780915930148E+00   -0.3378334065835010E-06    0.1196393305605281E-08   -0.7146332137164535E-11    0.7165483484339319E-12   -0.6260295198901034E-09
 -0.2805   0.5857    0.5271182928293317E-01    0.6848330125522443E-03   -0.1007026286215108E-05   -0.1436419326296199E+00   -0.6295514047682138E+00   -0.3685130935027591E-06    0.1191836007923691E-08   -0.8718775701410664E-11    0.6661494272863777E-12   -0.7277231039992671E-09
 -0.2884   0.5684    0.5542270009254070E-01    0.7029787976528277E-03   -0.1215606925640023E-06   -0.7962719308599142E-01   -0.6500032909078071E+00   -0.3775583506796211E-06    0.1185520600796314E-08   -0.9561837432947584E-11    0.6309137240423368E-12   -0.7906590659967350E-09
 -0.2971   0.5495    0.5680048537377675E-01    0.7095493463748710E-03   -0.3217238302448914E-06   -0.1949017880413683E-01   -0.6603713350010167E+00   -0.3802755618996797E-06    0.1177747065562833E-08   -0.9544295909158507E-11    0.5554424108156208E-12   -0.7920735317634708E-09
 -0.3064   0.5292    0.5666373237095724E-01    0.7468183894340707E-03   -0.1524831275361946E-05    0.3408194117290598E-01   -0.6992666895221222E+00   -0.3994459216465323E-06    0.1168274187893920E-08   -0.8698415251973124E-11    0.5348672893479289E-12   -0.7083479497405065E-09
 -0.3163   0.5075    0.5501098364235499E-01    0.8566475514347450E-03   -0.3401072897838908E-05    0.7916573075834570E-01   -0.8051258043462158E+00   -0.4576112706339612E-06    0.1156043604594315E-08   -0.7224377346348732E-11    0.4658495811327157E-12   -0.5178713291531523E-09
 -0.3269   0.4845    0.5199277294544781E-01    0.1068295890685171E-02   -0.5517289689656589E-05    0.1148646863362776E+00   -0.1005021465951673E+01   -0.5704794562563743E-06    0.1138749688295304E-08   -0.5378988920945460E-11    0.4167430289747642E-12   -0.2067464394128748E-09
 -0.3379   0.4603    0.4785226807735871E-01    0.1395681222030608E-02   -0.7610236695290511E-05    0.1414010480919978E+00   -0.1311982610129484E+01   -0.7454969297974451E-06    0.1113232754243465E-08   -0.3358278932719116E-11    0.3534880721467459E-12    0.2231225829096850E-09
 -0.3495   0.4351    0.4287110823879338E-01    0.1842677633609881E-02   -0.9574723090736759E-05    0.1599915273255175E+00   -0.1729704438619538E+01   -0.9847253501485629E-06    0.1076287777651563E-08   -0.1247522918301769E-11    0.2779235175331962E-12    0.7474187588285552E-09
 -0.3615   0.4088    0.3734187549327964E-01    0.2409028292761011E-02   -0.1141495256979483E-04    0.1725048572970760E+00   -0.2257894800846886E+01   -0.1288033411857752E-05    0.1025735416743112E-08    0.9497125308399745E-12    0.1525307657956887E-12    0.1320634098606055E-08
 -0.3739   0.3817    0.3156252701311825E-01    0.3091769306060058E-02   -0.1309720486409335E-04    0.1809930919019739E+00   -0.2893599924741730E+01   -0.1653875512311060E-05    0.9610980206131714E-09    0.3248137869782397E-11    0.7611272723195839E-13    0.1885686386551844E-08
 -0.3867   0.3539    0.2584022322913443E-01    0.3882949987410209E-02   -0.1455255824847442E-04    0.1872659303410734E+00   -0.3629151490613792E+01   -0.2078034337717353E-05    0.8837584795917675E-09    0.5695364319047158E-11   -0.5839773109528323E-13    0.2391288303656147E-08
 -0.3997   0.3254    0.2049425051129229E-01    0.4766877885056475E-02   -0.1566277128490361E-04    0.1926539820666524E+00   -0.4449678066529397E+01   -0.2552159723293271E-05    0.7967736748160092E-09    0.8353987640541405E-11   -0.1479372180313021E-12    0.2802946064920514E-08
 -0.4130   0.2965    0.1585243954293807E-01    0.5719036964586593E-02   -0.1632455431884994E-04    0.1979911558393582E+00   -0.5332162990972926E+01   -0.3063140788909233E-05    0.7042249561273195E-09    0.1133371174688591E-10   -0.2764732887072796E-12    0.3108467110882890E-08
 -0.4264   0.2671    0.1223757121587988E-01    0.6707012612980301E-02   -0.1644649147985592E-04    0.2037355341607394E+00   -0.6246342864448054E+01   -0.3593635930887853E-05    0.6107363642593455E-09    0.1473778044047691E-10   -0.3341910081999799E-12    0.3312508615495313E-08
 -0.4400   0.2375    0.9945183763235447E-02    0.7692732950900007E-02   -0.1598114482866498E-04    0.2101196460544755E+00   -0.7156822093595099E+01   -0.4123221350714648E-05    0.5211330915411150E-09    0.1862343612657469E-10   -0.4142935994266850E-12    0.3428898992866025E-08
 -0.4536   0.2078    0.9216912423719675E-02    0.8634916729725741E-02   -0.1489299694112870E-04    0.2172635180092959E+00   -0.8025342590915139E+01   -0.4629757181606554E-05    0.4400091749290347E-09    0.2288885747603331E-10   -0.4573008638431020E-12    0.3473366609954565E-08
 -0.4672   0.1780    0.1021423136107876E-01    0.9490855321506397E-02   -0.1316206065025698E-04    0.2252375291977600E+00   -0.8812448076432203E+01   -0.5090283042784018E-05    0.3714456416059608E-09    0.2725775161138699E-10   -0.4731631753074339E-12    0.3460601050511714E-08
 -0.4808   0.1484    0.1299450762996854E-01    0.1021726273705034E-01   -0.1075044835153848E-04    0.2340894971441594E+00   -0.9478261293678935E+01   -0.5481540475631804E-05    0.3184651188592458E-09    0.3131800374589488E-10   -0.4439990042293118E-12    0.3402481212576303E-08
 -0.4942   0.1191    0.1748972570394089E-01    0.1077072321721359E-01   -0.7619766583143082E-05    0.2438531038852364E+00   -0.9982929033209805E+01   -0.5780137001310226E-05    0.2825563689273780E-09    0.3447653273980222E-10   -0.3750125210366662E-12    0.3308230741433382E-08
 -0.5075   0.0901    0.2348815116019009E-01    0.1110877322207344E-01   -0.3734055077943608E-05    0.2545483390402849E+00   -0.1028762364182653E+02   -0.5963204283012694E-05    0.2630790351190737E-09    0.3616096311276351E-10   -0.2584252256632169E-12    0.3185330490693139E-08
 -0.5205   0.0616    0.3062291639100512E-01    0.1119277252547355E-01    0.8862500779375822E-06    0.2661789317010385E+00   -0.1035722713647979E+02   -0.6009850050082897E-05    0.2569692637930526E-09    0.3577521612285750E-10   -0.1096414625756381E-12    0.3039322571396497E-08
 -0.5333   0.0338    0.3837554013440778E-01    0.1099320547628138E-01    0.6128763578989678E-05    0.2787288856175163E+00   -0.1016517646215217E+02   -0.5904108833678075E-05    0.2588460175367846E-09    0.3299860384942122E-10    0.5875161468438250E-13    0.2875133103819039E-08
 -0.5457   0.0067    0.4610539979848822E-01    0.1049703429254216E-01    0.1173367501645438E-04    0.2921592310694239E+00   -0.9700196567559466E+01   -0.5638801928247631E-05    0.2618849234692355E-09    0.2782074570717441E-10    0.2220931771823587E-12    0.2696118212366927E-08
 -0.5577  -0.0195    0.5311280876783193E-01    0.9715286481644447E-02    0.1729478391935741E-04    0.3064057928757539E+00   -0.8973129112519459E+01   -0.5219760372963930E-05    0.2589904471439475E-09    0.2064715065586142E-10    0.3973765760889592E-12    0.2505066086858077E-08
 -0.5693  -0.0448    0.5873321585049279E-01    0.8687912335484759E-02    0.2229086633738081E-04    0.3213784748955871E+00   -0.8021284685742978E+01   -0.4668335776986771E-05    0.2446265551236948E-09    0.1231459378914224E-10    0.5197647867660748E-12    0.2304906035130450E-08
 -0.5804  -0.0690    0.6244410354474256E-01    0.7482825768166989E-02    0.2619403943738732E-04    0.3369619931567439E+00   -0.6907393397006611E+01   -0.4021054375462735E-05    0.2163070347838136E-09    0.3923583680176534E-11    0.6161043897279228E-12    0.2097702919354183E-08
 -0.5909  -0.0920    0.6395414449716229E-01    0.6187707390457004E-02    0.2858839338382600E-04    0.3530171828621706E+00   -0.5712076000833157E+01   -0.3325050095661474E-05    0.1751693165519264E-09   -0.3451683383559612E-11    0.6837586052910183E-12    0.1885526700051710E-08
 -0.6008  -0.1137    0.6324427904407377E-01    0.4896050805659273E-02    0.2928456248117138E-04    0.3693813067777138E+00   -0.4521031495356526E+01   -0.2630727601509392E-05    0.1254261000616097E-09   -0.8931966277714309E-11    0.7245037902947615E-12    0.1671112777670847E-08
 -0.6102  -0.1340    0.6054731478213908E-01    0.3691709154136173E-02    0.2835064203291264E-04    0.3858658181086170E+00   -0.3411038000565801E+01   -0.1983209705708974E-05    0.7299714305242233E-10   -0.1211059030836736E-10    0.7179812300250887E-12    0.1456735823981981E-08
 -0.6188  -0.1529    0.5627670072521297E-01    0.2636898077722019E-02    0.2607154182177817E-04    0.4022513501184002E+00   -0.2438992850664987E+01   -0.1416095346829574E-05    0.2361825318653032E-10   -0.1305289210051797E-10    0.6763894999650688E-12    0.1245061966720362E-08
 -0.6267  -0.1702    0.5093355015698207E-01    0.1766961947722528E-02    0.2283740141182447E-04    0.4182822773803839E+00   -0.1637265898390392E+01   -0.9483504814260108E-06   -0.1845778391240671E-10   -0.1219266354546278E-10    0.6575989752732880E-12    0.1039641168293359E-08
 -0.6339  -0.1859    0.4502273521129261E-01    0.1092029543152829E-02    0.1902918780480973E-04    0.4336658331417203E+00   -0.1015104034551589E+01   -0.5855274247158625E-06   -0.5105395967097692E-10   -0.1016981984736098E-10    0.6108308303609533E-12    0.8433973831822872E-09
 -0.6404  -0.1999    0.3899766918157471E-01    0.6031515789355413E-03    0.1493488467399735E-04    0.4480813425454178E+00   -0.5643209785977013E+00   -0.3226960514729618E-06   -0.7392150086493743E-10   -0.7642650835110176E-11    0.6143280328885226E-12    0.6601531092609303E-09
 -0.6460  -0.2122    0.3323649150652022E-01    0.2792616351546470E-03    0.1073957966211928E-04    0.4612019570399976E+00   -0.2654200474719377E+00   -0.1486772273851944E-06   -0.8828606942734574E-10   -0.5175013195746203E-11    0.5996661500695666E-12    0.4935406961587008E-09
 -0.6508  -0.2227    0.2804019010497244E-01    0.9214395473925971E-04    0.6600541007039091E-05    0.4727250001275534E+00   -0.9227107408059862E-01   -0.4816144110416856E-07   -0.9613382138951021E-10   -0.3161738232337896E-11    0.6068305580253508E-12    0.3468985333363039E-09
 -0.6547  -0.2313    0.2363686844655531E-01    0.8160197240787435E-05    0.2813789827087824E-05    0.4824011440608544E+00   -0.1342408260105791E-01   -0.3352933094828809E-08   -0.9992541863401705E-10   -0.1826826884210320E-11    0.6508491662282623E-12    0.2244887808630636E-09
 -0.6578  -0.2381    0.2017924072258821E-01   -0.1109388338471396E-04   -0.5362875221823209E-07    0.4900514305419119E+00    0.6652961570635826E-02    0.6661526249714331E-08   -0.1019434221148077E-09   -0.1151693324041858E-11    0.6502454824586223E-12    0.1264888931443164E-09
 -0.6600  -0.2429    0.1773329135276092E-01   -0.4963547532191621E-05   -0.1188568178413387E-05    0.4955663616554152E+00    0.3954975230877441E-02    0.2719870658671791E-08   -0.1044551496080098E-09   -0.9236621884012308E-12    0.7074072230772721E-12    0.5655208809920986E-10
 -0.6614  -0.2458    0.1628255449190889E-01   -0.2043133348259366E-06   -0.2043252947894579E-06    0.4988901607413952E+00    0.7068231397231075E-03    0.1740381966328399E-09   -0.1076463638279707E-09   -0.4793636733217699E-12    0.5039467107503803E-12    0.1426035559169009E-10
 -0.6618  -0.2468    0.1579959438504257E-01    0.0000000000000000E+00    0.0000000000000000E+00    0.5000000000000000E+00   -0.5611270060895809E-04    0.0000000000000000E+00    0.0000000000000000E+00    0.0000000000000000E+00    0.0000000000000000E+00    0.0000000000000000E+00
 -0.2425   0.6610    0.2589945481209625E-01    0.0000000000000000E+00    0.0000000000000000E+00   -0.5000000000000000E+00   -0.4555150025665974E-02    0.0000000000000000E+00    0.0000000000000000E+00    0.0000000000000000E+00    0.0000000000000000E+00    0.0000000000000000E+00
 -0.2429   0.6600    0.2637408762299095E-01    0.2058694650841126E-05   -0.6312751671218213E-05   -0.4951146075391315E+00   -0.7676481988077666E-02   -0.3101551934684252E-08    0.1186187111642395E-08    0.6746799841896023E-12    0.8440366461304194E-12   -0.1077555969800081E-10
 -0.2443   0.6571    0.2776731227112852E-01    0.3248848390668107E-04   -0.3249263866767542E-04   -0.4804821201356481E+00   -0.1675296798549264E-01   -0.6421827428669720E-07    0.1187569924343546E-08    0.1916835397006156E-11    0.2150056174765602E-11   -0.4399139169261601E-10
 -0.2465   0.6523    0.3000639476361941E-01    0.1582791317498722E-03   -0.7012544372045378E-04   -0.4561909326634281E+00   -0.3994216760106355E-01   -0.3446929473375504E-06    0.1190309854154359E-08    0.2062298248839411E-11    0.2913853186514714E-11   -0.9905094626450062E-10
 -0.2496   0.6455    0.3300921562641561E-01    0.4417967691676866E-03   -0.9774741833281426E-04   -0.4224506280957221E+00   -0.9306252245494567E-01   -0.9837130006021878E-06    0.1193600537852113E-08   -0.8120240591047434E-14    0.3469755732732338E-11   -0.1751514471654003E-09
 -0.2535   0.6369    0.3666873943640628E-01    0.8831162238348997E-03   -0.1060801364099099E-03   -0.3796970224075117E+00   -0.1809828817373792E+00   -0.1969133175893824E-05    0.1196607091191737E-08   -0.4590574448348761E-11    0.3786145008621844E-11   -0.2712241577162988E-09
 -0.2583   0.6264    0.4080553742740762E-01    0.1416483880367297E-02   -0.9575306272553308E-04   -0.3287437420119282E+00   -0.2928812076779878E+00   -0.3146213224215181E-05    0.1198455161499634E-08   -0.1130775334479139E-10    0.3883615651290029E-11   -0.3837734574574370E-09
 -0.2640   0.6141    0.4514475998895828E-01    0.1940631868340696E-02   -0.7237400939932277E-04   -0.2709466749305251E+00   -0.4081854670504148E+00   -0.4288252057061033E-05    0.1198483985664911E-08   -0.1909747360251401E-10    0.3758493516414774E-11   -0.5058971574989357E-09
 -0.2704   0.6001    0.4932312094280251E-01    0.2357596763006044E-02   -0.4370672225652971E-04   -0.2083115899074536E+00   -0.5057574880800810E+00   -0.5179962527148554E-05    0.1196400409297915E-08   -0.2658420011902862E-10    0.3458693401126034E-11   -0.6256821935557433E-09