 title="result"
 variables="x","y","P","u","v","t","omega","psi","RES1","RES2","RES3","RES4"
zone,j= 49,i= 49,f=point
 -0.3851   0.5930    0.2512158733217199E-01    0.0000000000000000E+00    0.0000000000000000E+00   -0.5000000000000000E+00    0.0000000000000000E+00    0.0000000000000000E+00    0.0000000000000000E+00    0.0000000000000000E+00    0.0000000000000000E+00    0.0000000000000000E+00
 -0.3853   0.5920    0.2564140165107445E-01    0.0000000000000000E+00    0.0000000000000000E+00   -0.4957146265668397E+00   -0.6209307656447753E-04    0.0000000000000000E+00    0.0000000000000000E+00    0.0000000000000000E+00    0.0000000000000000E+00    0.0000000000000000E+00
 -0.3860   0.5888    0.2717471292941213E-01    0.0000000000000000E+00    0.0000000000000000E+00   -0.4828788822766483E+00   -0.4211778015393217E-02    0.0000000000000000E+00    0.0000000000000000E+00    0.0000000000000000E+00    0.0000000000000000E+00    0.0000000000000000E+00
 -0.3871   0.5836    0.2966185864798185E-01    0.0000000000000000E+00    0.0000000000000000E+00   -0.4615659700482221E+00   -0.1600913603863659E-01    0.0000000000000000E+00    0.0000000000000000E+00    0.0000000000000000E+00    0.0000000000000000E+00    0.0000000000000000E+00
 -0.3887   0.5764    0.3299265396026234E-01    0.0000000000000000E+00    0.0000000000000000E+00   -0.4319378676032832E+00   -0.2987335254708254E-01    0.0000000000000000E+00    0.0000000000000000E+00    0.0000000000000000E+00    0.0000000000000000E+00    0.0000000000000000E+00
 -0.3906   0.5671    0.3697123991481246E-01    0.0000000000000000E+00    0.0000000000000000E+00   -0.3943030468352968E+00   -0.3711127490777330E-01    0.0000000000000000E+00    0.0000000000000000E+00    0.0000000000000000E+00    0.0000000000000000E+00    0.0000000000000000E+00
 -0.3930   0.5558    0.4132434091920353E-01    0.0000000000000000E+00    0.0000000000000000E+00   -0.3491909343314356E+00   -0.3240370726034044E-01    0.0000000000000000E+00    0.0000000000000000E+00    0.0000000000000000E+00    0.0000000000000000E+00    0.0000000000000000E+00
 -0.3958   0.5426    0.4572039474370498E-01    0.0000000000000000E+00    0.0000000000000000E+00   -0.2974369217216472E+00   -0.1604107615955664E-01    0.0000000000000000E+00    0.0000000000000000E+00    0.0000000000000000E+00    0.0000000000000000E+00    0.0000000000000000E+00
 -0.3990   0.5275    0.4979431462916289E-01    0.0000000000000000E+00    0.0000000000000000E+00   -0.2402703247165289E+00    0.5393468615827527E-02    0.0000000000000000E+00    0.0000000000000000E+00    0.0000000000000000E+00    0.0000000000000000E+00    0.0000000000000000E+00
 -0.4026   0.5106    0.5317793291393567E-01    0.0000000000000000E+00    0.0000000000000000E+00   -0.1793901413318762E+00    0.1915231081524751E-01    0.0000000000000000E+00    0.0000000000000000E+00    0.0000000000000000E+00    0.0000000000000000E+00    0.0000000000000000E+00
 -0.4066   0.4920    0.5553730498516016E-01    0.0000000000000000E+00    0.0000000000000000E+00   -0.1169979634984385E+00    0.7026221690403338E-02    0.0000000000000000E+00    0.0000000000000000E+00    0.0000000000000000E+00    0.0000000000000000E+00    0.0000000000000000E+00
 -0.4109   0.4717    0.5661362191398616E-01    0.0000000000000000E+00    0.0000000000000000E+00   -0.5573962478107695E-01   -0.5237008996978344E-01    0.0000000000000000E+00    0.0000000000000000E+00    0.0000000000000000E+00    0.0000000000000000E+00    0.0000000000000000E+00
 -0.4156   0.4498    0.5625785919739829E-01    0.0000000000000000E+00    0.0000000000000000E+00    0.1500457308356079E-02   -0.1795787829878053E+00    0.0000000000000000E+00    0.0000000000000000E+00    0.0000000000000000E+00    0.0000000000000000E+00    0.0000000000000000E+00
 -0.4205   0.4264    0.5444743433295774E-01    0.0000000000000000E+00    0.0000000000000000E+00    0.5198559915414112E-01   -0.3901752208911612E+00    0.0000000000000000E+00    0.0000000000000000E+00    0.0000000000000000E+00    0.0000000000000000E+00    0.0000000000000000E+00
 -0.4258   0.4017    0.5128023548251633E-01    0.0000000000000000E+00    0.0000000000000000E+00    0.9365155633177988E-01   -0.6932723977343681E+00    0.0000000000000000E+00    0.0000000000000000E+00    0.0000000000000000E+00    0.0000000000000000E+00    0.0000000000000000E+00
 -0.4313   0.3757    0.4695189613143876E-01    0.0000000000000000E+00    0.0000000000000000E+00    0.1256067261840431E+00   -0.1093525704972963E+01    0.0000000000000000E+00    0.0000000000000000E+00    0.0000000000000000E+00    0.0000000000000000E+00    0.0000000000000000E+00
 -0.4371   0.3485    0.4172722051680116E-01    0.0000000000000000E+00    0.0000000000000000E+00    0.1483613415656236E+00   -0.1594331838792372E+01    0.0000000000000000E+00    0.0000000000000000E+00    0.0000000000000000E+00    0.0000000000000000E+00    0.0000000000000000E+00
 -0.4431   0.3203    0.3591447410678230E-01    0.0000000000000000E+00    0.0000000000000000E+00    0.1636124680237432E+00   -0.2198848512555041E+01    0.0000000000000000E+00    0.0000000000000000E+00    0.0000000000000000E+00    0.0000000000000000E+00    0.0000000000000000E+00
 -0.4493   0.2911    0.2984745083159626E-01    0.0000000000000000E+00    0.0000000000000000E+00    0.1736524190870511E+00   -0.2907683589669561E+01    0.0000000000000000E+00    0.0000000000000000E+00    0.0000000000000000E+00    0.0000000000000000E+00    0.0000000000000000E+00
 -0.4557   0.2612    0.2387626916951294E-01    0.0000000000000000E+00    0.0000000000000000E+00    0.1806973408059409E+00   -0.3714828802091628E+01    0.0000000000000000E+00    0.0000000000000000E+00    0.0000000000000000E+00    0.0000000000000000E+00    0.0000000000000000E+00
 -0.4622   0.2305    0.1836240209584531E-01    0.0000000000000000E+00    0.0000000000000000E+00    0.1864450182640658E+00   -0.4604308756039787E+01    0.0000000000000000E+00    0.0000000000000000E+00    0.0000000000000000E+00    0.0000000000000000E+00    0.0000000000000000E+00
 -0.4688   0.1994    0.1366945192195308E-01    0.0000000000000000E+00    0.0000000000000000E+00    0.1919708969993777E+00   -0.5549145173562647E+01    0.0000000000000000E+00    0.0000000000000000E+00    0.0000000000000000E+00    0.0000000000000000E+00    0.0000000000000000E+00
 -0.4755   0.1678    0.1014350347149667E-01    0.0000000000000000E+00    0.0000000000000000E+00    0.1978585549913801E+00   -0.6512843781840572E+01    0.0000000000000000E+00    0.0000000000000000E+00    0.0000000000000000E+00    0.0000000000000000E+00    0.0000000000000000E+00
 -0.4823   0.1359    0.8083621840044859E-02    0.0000000000000000E+00    0.0000000000000000E+00    0.2043943577209467E+00   -0.7452485361671645E+01    0.0000000000000000E+00    0.0000000000000000E+00    0.0000000000000000E+00    0.0000000000000000E+00    0.0000000000000000E+00
 -0.4891   0.1040    0.7708328515480309E-02    0.0000000000000000E+00    0.0000000000000000E+00    0.2117182696642468E+00   -0.8322116044892558E+01    0.0000000000000000E+00    0.0000000000000000E+00    0.0000000000000000E+00    0.0000000000000000E+00    0.0000000000000000E+00
 -0.4959   0.0720    0.9124339968439418E-02    0.0000000000000000E+00    0.0000000000000000E+00    0.2199072916455869E+00   -0.9075483421555015E+01    0.0000000000000000E+00    0.0000000000000000E+00    0.0000000000000000E+00    0.0000000000000000E+00    0.0000000000000000E+00
 -0.5026   0.0401    0.1230139153186551E-01    0.0000000000000000E+00    0.0000000000000000E+00    0.2290108169587117E+00   -0.9667966016308398E+01    0.0000000000000000E+00    0.0000000000000000E+00    0.0000000000000000E+00    0.0000000000000000E+00    0.0000000000000000E+00
 -0.5094   0.0085    0.1705496665036979E-01    0.0000000000000000E+00    0.0000000000000000E+00    0.2390615497777522E+00   -0.1005829109076771E+02    0.0000000000000000E+00    0.0000000000000000E+00    0.0000000000000000E+00    0.0000000000000000E+00    0.0000000000000000E+00
 -0.5160  -0.0226    0.2303943424871449E-01    0.0000000000000000E+00    0.0000000000000000E+00    0.2500764708007252E+00   -0.1021098910966700E+02    0.0000000000000000E+00    0.0000000000000000E+00    0.0000000000000000E+00    0.0000000000000000E+00    0.0000000000000000E+00
 -0.5225  -0.0533    0.2975669720144841E-01    0.0000000000000000E+00    0.0000000000000000E+00    0.2620544172854937E+00   -0.1010029720111424E+02    0.0000000000000000E+00    0.0000000000000000E+00    0.0000000000000000E+00    0.0000000000000000E+00    0.0000000000000000E+00
 -0.5289  -0.0832    0.3658755413663994E-01    0.0000000000000000E+00    0.0000000000000000E+00    0.2749729564003811E+00   -0.9715455589675626E+01    0.0000000000000000E+00    0.0000000000000000E+00    0.0000000000000000E+00    0.0000000000000000E+00    0.0000000000000000E+00
 -0.5351  -0.1124    0.4285112835114914E-01    0.0000000000000000E+00    0.0000000000000000E+00    0.2887858094123875E+00   -0.9066243238652955E+01    0.0000000000000000E+00    0.0000000000000000E+00    0.0000000000000000E+00    0.0000000000000000E+00    0.0000000000000000E+00
 -0.5411  -0.1406    0.4789018849550922E-01    0.0000000000000000E+00    0.0000000000000000E+00    0.3034215272291220E+00   -0.8186636686578186E+01    0.0000000000000000E+00    0.0000000000000000E+00    0.0000000000000000E+00    0.0000000000000000E+00    0.0000000000000000E+00
 -0.5468  -0.1678    0.5116822949971635E-01    0.0000000000000000E+00    0.0000000000000000E+00    0.3187836121765317E+00   -0.7134253412753885E+01    0.0000000000000000E+00    0.0000000000000000E+00    0.0000000000000000E+00    0.0000000000000000E+00    0.0000000000000000E+00
 -0.5524  -0.1938    0.5235382593165579E-01    0.0000000000000000E+00    0.0000000000000000E+00    0.3347515896266403E+00   -0.5984245381268804E+01    0.0000000000000000E+00    0.0000000000000000E+00    0.0000000000000000E+00    0.0000000000000000E+00    0.0000000000000000E+00
 -0.5576  -0.2185    0.5136635406891366E-01    0.0000000000000000E+00    0.0000000000000000E+00    0.3511818052625841E+00   -0.4818397966342773E+01    0.0000000000000000E+00    0.0000000000000000E+00    0.0000000000000000E+00    0.0000000000000000E+00    0.0000000000000000E+00
 -0.5626  -0.2419    0.4836866338725695E-01    0.0000000000000000E+00    0.0000000000000000E+00    0.3679063992872678E+00   -0.3712367629568593E+01    0.0000000000000000E+00    0.0000000000000000E+00    0.0000000000000000E+00    0.0000000000000000E+00    0.0000000000000000E+00
 -0.5672  -0.2637    0.4371175877932191E-01    0.0000000000000000E+00    0.0000000000000000E+00    0.3847295284823795E+00   -0.2724968265525197E+01    0.0000000000000000E+00    0.0000000000000000E+00    0.0000000000000000E+00    0.0000000000000000E+00    0.0000000000000000E+00
 -0.5715  -0.2841    0.3785349010292311E-01    0.0000000000000000E+00    0.0000000000000000E+00    0.4014217220595878E+00   -0.1892487031323968E+01    0.0000000000000000E+00    0.0000000000000000E+00    0.0000000000000000E+00    0.0000000000000000E+00    0.0000000000000000E+00
 -0.5755  -0.3027    0.3127839915731140E-01    0.0000000000000000E+00    0.0000000000000000E+00    0.4177157407321656E+00   -0.1228818421576988E+01    0.0000000000000000E+00    0.0000000000000000E+00    0.0000000000000000E+00    0.0000000000000000E+00    0.0000000000000000E+00
 -0.5791  -0.3196    0.2443873729784648E-01    0.0000000000000000E+00    0.0000000000000000E+00    0.4333089940527974E+00   -0.7299397697723399E+00    0.0000000000000000E+00    0.0000000000000000E+00    0.0000000000000000E+00    0.0000000000000000E+00    0.0000000000000000E+00
 -0.5823  -0.3347    0.1772352348249020E-01    0.0000000000000000E+00    0.0000000000000000E+00    0.4478767056636271E+00   -0.3801407107806858E+00    0.0000000000000000E+00    0.0000000000000000E+00    0.0000000000000000E+00    0.0000000000000000E+00    0.0000000000000000E+00
 -0.5851  -0.3479    0.1145091896336989E-01    0.0000000000000000E+00    0.0000000000000000E+00    0.4610959658595991E+00   -0.1573917750763426E+00    0.0000000000000000E+00    0.0000000000000000E+00    0.0000000000000000E+00    0.0000000000000000E+00    0.0000000000000000E+00
 -0.5875  -0.3592    0.5872969969820303E-02    0.0000000000000000E+00    0.0000000000000000E+00    0.4726751513238561E+00   -0.3641652741535451E-01    0.0000000000000000E+00    0.0000000000000000E+00    0.0000000000000000E+00    0.0000000000000000E+00    0.0000000000000000E+00
 -0.5895  -0.3685    0.1180638673671130E-02    0.0000000000000000E+00    0.0000000000000000E+00    0.4823792270289323E+00    0.1073850149562289E-01    0.0000000000000000E+00    0.0000000000000000E+00    0.0000000000000000E+00    0.0000000000000000E+00    0.0000000000000000E+00
 -0.5910  -0.3757   -0.2498375935147902E-02    0.0000000000000000E+00    0.0000000000000000E+00    0.4900420982193335E+00    0.1436611111000380E-01    0.0000000000000000E+00    0.0000000000000000E+00    0.0000000000000000E+00    0.0000000000000000E+00    0.0000000000000000E+00
 -0.5921  -0.3809   -0.5107999839189415E-02    0.0000000000000000E+00    0.0000000000000000E+00    0.4955627395003951E+00    0.4378346008367276E-02    0.0000000000000000E+00    0.0000000000000000E+00    0.0000000000000000E+00    0.0000000000000000E+00    0.0000000000000000E+00
 -0.5928  -0.3841   -0.6663685978820015E-02    0.0000000000000000E+00    0.0000000000000000E+00    0.4988892857080387E+00   -0.1063506833025188E-03    0.0000000000000000E+00    0.0000000000000000E+00    0.0000000000000000E+00    0.0000000000000000E+00    0.0000000000000000E+00
 -0.5930  -0.3851   -0.7184123254973505E-02    0.0000000000000000E+00    0.0000000000000000E+00    0.5000000000000000E+00    0.0000000000000000E+00    0.0000000000000000E+00    0.0000000000000000E+00    0.0000000000000000E+00    0.0000000000000000E+00    0.0000000000000000E+00
 -0.3841   0.5928    0.2523438635900213E-01    0.0000000000000000E+00    0.0000000000000000E+00   -0.5000000000000000E+00   -0.6226136941682556E-04    0.0000000000000000E+00    0.0000000000000000E+00    0.0000000000000000E+00    0.0000000000000000E+00    0.0000000000000000E+00
 -0.3843   0.5918    0.2575372515799522E-01    0.2014955641394210E-06   -0.2015882461106915E-06   -0.4957145251078932E+00   -0.5464588065101997E-03   -0.1360026778643865E-09    0.1025846816890032E-08    0.2806258372380077E-12    0.2748027499999139E-12   -0.8884514218071571E-11
 -0.3850   0.5886    0.2728656799556317E-01    0.4219273711333645E-05   -0.1052614045554661E-05   -0.4828784752573743E+00   -0.3818735683819084E-02   -0.2274972108684785E-08    0.1027839725657731E-08    0.5508928816594372E-12    0.3852998649300776E-12   -0.3598879224145368E-10
 -0.3861   0.5834    0.2977036062624789E-01    0.1547528392893450E-04   -0.1208332402506928E-05   -0.4615650493230889E+00   -0.1292043523577228E-01   -0.8606140801798350E-08    0.1030346783587044E-08    0.5493574345427632E-12    0.4015338408991376E-12   -0.7941240113412684E-10
 -0.3876   0.5761    0.3309253109219938E-01    0.2914481935313627E-04   -0.7635316931346763E-06   -0.4319362260998492E+00   -0.2462133213036458E-01   -0.1607666833871561E-07    0.1033329014802492E-08    0.1943046418206862E-12    0.4332211672730679E-12   -0.1414864232718305E-09
 -0.3896   0.5669    0.3705950530617241E-01    0.3656046591390783E-04   -0.9926866011335932E-07   -0.3943004868948693E+00   -0.3122149941242543E-01   -0.2013912249062274E-07    0.1036772687910666E-08   -0.6900383042740543E-12    0.4277501746904888E-12   -0.2198867130043247E-09
 -0.3920   0.5556    0.4139975161416558E-01    0.3208917126810430E-04    0.4799410473469184E-06   -0.3491872696066380E+00   -0.2759557799368163E-01   -0.1762176546480319E-07    0.1040013471718428E-08   -0.2148396044399092E-11    0.4571850710510805E-12   -0.3132528264560008E-09
 -0.3948   0.5424    0.4578288704466385E-01    0.1595361519654339E-04    0.7692336796972482E-06   -0.2974319798091854E+00   -0.1381403091145168E-01   -0.8758975247095789E-08    0.1042499615929934E-08   -0.4062890648914852E-11    0.4912116720323656E-12   -0.4176565343572136E-09
 -0.3980   0.5273    0.4984464341123408E-01   -0.4981341277360565E-05    0.6590110584664753E-06   -0.2402639639163789E+00    0.3849766694661327E-02    0.2818379341429182E-08    0.1043825692114558E-08   -0.6224813199617873E-11    0.4727546479288414E-12   -0.5259903068655092E-09
 -0.4016   0.5104    0.5321756958876520E-01   -0.1730216326290287E-04    0.8362101440406724E-07   -0.1793822906799106E+00    0.1310824348281344E-01    0.9829828914260242E-08    0.1043916996479343E-08   -0.8391815020658555E-11    0.4562216625531371E-12   -0.6239984084999151E-09
 -0.4056   0.4917    0.5556825663124685E-01   -0.1811802159747160E-05   -0.9675419949228459E-06   -0.1169886853314042E+00   -0.3710402067252995E-02    0.1993652249573965E-08    0.1042790093207582E-08   -0.1037002428372347E-10    0.4127869920877991E-12   -0.6918438807956839E-09
 -0.4099   0.4714    0.5663817503098514E-01    0.6406703487797347E-04   -0.2429666726545321E-05   -0.5572918749842238E-01   -0.6738596124942255E-01   -0.3286870815176507E-07    0.1040183598109701E-08   -0.1204343569316535E-10    0.3854607605324745E-12   -0.7022176035098582E-09
 -0.4145   0.4496    0.5627820998635550E-01    0.2020689383171839E-03   -0.4155553080313193E-05    0.1511524822193294E-02   -0.1979914438077682E+00   -0.1064067512803458E-06    0.1035094572554573E-08   -0.1337844418580758E-10    0.3117887892312154E-12   -0.6227379584222703E-09
 -0.4195   0.4262    0.5446553787173346E-01    0.4287462135814280E-03   -0.5971350240794954E-05    0.5199652011264239E-01   -0.4108678015888206E+00   -0.2275265731021479E-06    0.1025415058419910E-08   -0.1438395236252887E-10    0.2776077978605684E-12   -0.4224153249410278E-09
 -0.4247   0.4015    0.5129788964939445E-01    0.7538512295481844E-03   -0.7753712644287581E-05    0.9366143490216032E-01   -0.7151299885428077E+00   -0.4014294691249170E-06    0.1007815803033552E-08   -0.1507175634296587E-10    0.2311761893025732E-12   -0.8268750961715199E-10
 -0.4303   0.3754    0.4697095068852381E-01    0.1182378023255082E-02   -0.9472446804746657E-05    0.1256147869226658E+00   -0.1115449361357413E+01   -0.6308027719671171E-06    0.9782886375986344E-09   -0.1540869515315180E-10    0.1711478181398718E-12    0.3906248033369586E-09
 -0.4360   0.3483    0.4174952406782905E-01    0.1717870269376765E-02   -0.1115228458376867E-04    0.1483671763745947E+00   -0.1615054118579580E+01   -0.9175471832544026E-06    0.9330279708563705E-09   -0.1531794135978259E-10    0.9364731212713195E-13    0.9612026244387728E-09
 -0.4420   0.3200    0.3594153749429556E-01    0.2363469788574997E-02   -0.1280107559641428E-04    0.1636161412999157E+00   -0.2216652785232727E+01   -0.1263396719415823E-05    0.8696083471371185E-09   -0.1466730209509493E-10    0.2484817906989178E-13    0.1568088887904384E-08
 -0.4482   0.2909    0.2987996215403177E-01    0.3119482190807277E-02   -0.1435716501864918E-04    0.1736543633967804E+00   -0.2920209574011156E+01   -0.1668568945320720E-05    0.7875789534428357E-09   -0.1330383025965887E-10   -0.1354888423676925E-12    0.2143967068116148E-08
 -0.4546   0.2609    0.2391378786749768E-01    0.3979111575770866E-02   -0.1569137840489439E-04    0.1806981238829218E+00   -0.3719034281073125E+01   -0.2129496373672134E-05    0.6887867325111596E-09   -0.1100396163078443E-10   -0.2406824739509261E-12    0.2635268744541341E-08
 -0.4611   0.2303    0.1840329801129254E-01    0.4924970726814777E-02   -0.1664038886563521E-04    0.1864451334237273E+00   -0.4596619573353415E+01   -0.2636919673695206E-05    0.5770939073834747E-09   -0.7507942184625804E-11   -0.3255451463957115E-12    0.3013482300528352E-08
 -0.4677   0.1991    0.1371111244533790E-01    0.5928054857821608E-02   -0.1705263581788293E-04    0.1919706702509253E+00   -0.5525756428170813E+01   -0.3175337148886310E-05    0.4579463266929373E-09   -0.2581115876587603E-11   -0.4360956040727615E-12    0.3275142863076036E-08
 -0.4745   0.1676    0.1018263479315975E-01    0.6949381624990321E-02   -0.1681685358799188E-04    0.1978581576664544E+00   -0.6470111675233538E+01   -0.3723867622578770E-05    0.3378673590903603E-09    0.3876912679778854E-11   -0.5192374308293779E-12    0.3432810020184002E-08
 -0.4812   0.1357    0.8116574122804858E-02    0.7943309035748126E-02   -0.1587230905365840E-04    0.2043938620729915E+00   -0.7387336718007449E+01   -0.4258024265229791E-05    0.2240671606590361E-09    0.1176575503691879E-10   -0.5808409309082663E-12    0.3505490796078259E-08
 -0.4880   0.1037    0.7731306208989886E-02    0.8861144329476926E-02   -0.1419591617712839E-04    0.2117176989221567E+00   -0.8232415641504343E+01   -0.4751657092451698E-05    0.1236817523397882E-09    0.2071021132366013E-10   -0.5549727344345001E-12    0.3511340827475062E-08
 -0.4948   0.0717    0.9133533691024117E-02    0.9654042672053956E-02   -0.1178671551084251E-04    0.2199066495590718E+00   -0.8960350116208984E+01   -0.5178496383631432E-05    0.4302172160186579E-10    0.3012412541636422E-10   -0.5492620247515845E-12    0.3466431301724082E-08
 -0.5016   0.0399    0.1229302017973809E-01    0.1027504647087405E-01   -0.8652771137199348E-05    0.2290101013234334E+00   -0.9528032165759214E+01   -0.5513269070784959E-05   -0.1306902502884455E-10    0.3927580483065185E-10   -0.4505354422867924E-12    0.3382626411613243E-08
 -0.5083   0.0083    0.1702537173254487E-01    0.1068090064638440E-01   -0.4818635982303058E-05    0.2390607577548448E+00   -0.9895927724271148E+01   -0.5732647936582782E-05   -0.4227449987292964E-10    0.4731592895268477E-10   -0.3162227424358122E-12    0.3268866614024313E-08
 -0.5149  -0.0228    0.2298525852127849E-01    0.1083464044906015E-01   -0.3461326098966337E-06    0.2500756009287454E+00   -0.1003044481611844E+02   -0.5816677572484401E-05   -0.4505141984294248E-10    0.5345318632166141E-10   -0.1480443372059437E-12    0.3131866056424459E-08
 -0.5214  -0.0535    0.2967526360644054E-01    0.1070968749711599E-01    0.4628836087833875E-05    0.2620534701978385E+00   -0.9907696968519240E+01   -0.5750940668563036E-05   -0.2497407315671385E-10    0.5696876304028820E-10    0.2174649349484525E-13    0.2976276171698378E-08
 -0.5278  -0.0834    0.3647736569628151E-01    0.1029537745961162E-01    0.9867769580493679E-05    0.2749719347843326E+00   -0.9518516540078068E+01   -0.5529591099348055E-05    0.1152908324364432E-10    0.5739836383966690E-10    0.2348815586472597E-12    0.2805907612160596E-08
 -0.5340  -0.1126    0.4271244434450327E-01    0.9602695759449031E-02    0.1501809346513720E-04    0.2887847172450067E+00   -0.8873654417686472E+01   -0.5158400400361510E-05    0.5604284050719777E-10    0.5460826235648142E-10    0.4481276461021366E-12    0.2624190875016863E-08
 -0.5400  -0.1408    0.4772541403266482E-01    0.8668009665410682E-02    0.1964653406415601E-04    0.3034203683500127E+00   -0.8007069981877354E+01   -0.4656855583607808E-05    0.9939286199633912E-10    0.4882039217335432E-10    0.6630668236695669E-12    0.2432454074968726E-08
 -0.5458  -0.1680    0.5098198249092999E-01    0.7552373575273300E-02    0.2330915570946537E-04    0.3187823885665851E+00   -0.6975216485140193E+01   -0.4057726614363482E-05    0.1336053351286282E-09    0.4072753245765171E-10    0.8172212906387699E-12    0.2233127311540573E-08
 -0.5513  -0.1940    0.5215247740608802E-01    0.6335052259629543E-02    0.2565351469807248E-04    0.3347503002049689E+00   -0.5851016018552397E+01   -0.3403679486973765E-05    0.1532938706527709E-09    0.3133737713767459E-10    0.9344330864635708E-12    0.2027387877370779E-08
 -0.5566  -0.2187    0.5115718291677755E-01    0.5102079318989011E-02    0.2650241499786933E-04    0.3511804463417616E+00   -0.4713421791934995E+01   -0.2741005878481995E-05    0.1567001736701990E-09    0.2178063285285248E-10    0.1044109243508728E-11    0.1817983910981646E-08
 -0.5615  -0.2421    0.4815876998806824E-01    0.3932923334861171E-02    0.2589766344140546E-04    0.3679049677369385E+00   -0.3635227713135785E+01   -0.2112549893613456E-05    0.1455630269098229E-09    0.1311664665770707E-10    0.1093070078894698E-11    0.1606511168886215E-08
 -0.5662  -0.2640    0.4350716632713804E-01    0.2889320650327738E-02    0.2406807227864232E-04    0.3847280278533258E+00   -0.2672969938150265E+01   -0.1551533802077809E-05    0.1241375821581236E-09    0.6089073689707902E-11    0.1098302004898244E-11    0.1395429062231446E-08
 -0.5705  -0.2843    0.3765857729968165E-01    0.2009366381467618E-02    0.2135618282015237E-04    0.4014201704149939E+00   -0.1861512677669559E+01   -0.1078531825134187E-05    0.9753466784223619E-10    0.1049632603056239E-11    0.1045705189106627E-11    0.1188208573199567E-08
 -0.5745  -0.3029    0.3109588112472848E-01    0.1307662218720054E-02    0.1811335295138851E-04    0.4177141772055085E+00   -0.1214262170797463E+01   -0.7013497755394331E-06    0.7055638712172296E-10   -0.2039993174385302E-11    0.1021308038140489E-11    0.9877505636329831E-09
 -0.5781  -0.3198    0.2426995292566409E-01    0.7799882708773705E-03    0.1463064172174430E-04    0.4333074802159975E+00   -0.7273316710720291E+00   -0.4177844379471974E-06    0.4657905311455934E-10   -0.3493110314889414E-11    0.9950096302446809E-12    0.7979079827413749E-09
 -0.5813  -0.3349    0.1756897335117973E-01    0.4097811034732110E-03    0.1109331378001982E-04    0.4478753186676926E+00   -0.3855229023335377E+00   -0.2188381366648969E-06    0.2751295372083185E-10   -0.3768381440227841E-11    0.9678577383986919E-12    0.6218656891515684E-09
 -0.5841  -0.3481    0.1131058123090713E-01    0.1737211156185170E-03    0.7618796010692647E-05    0.4610947832346767E+00   -0.1672558022348000E+00   -0.9208937328610323E-07    0.1374060761005769E-10   -0.3348606114617070E-11    0.9452022498024348E-12    0.4631394243809206E-09
 -0.5865  -0.3594    0.5746326576152243E-02    0.4490351563757678E-04    0.4315125287045799E-05    0.4726742313084052E+00   -0.4760229970823234E-01   -0.2297247667877057E-07    0.4731371544552943E-11   -0.2655972664022954E-11    0.9344643114861384E-12    0.3251552672944857E-09
 -0.5884  -0.3687    0.1065990285198757E-02   -0.6471053940274750E-05    0.1444612519697692E-05    0.4823785914764870E+00    0.1255351072332740E-02    0.4308844233574820E-08   -0.9171114388750734E-12   -0.2006159127709850E-11    0.9441839671220364E-12    0.2094232755961434E-09
 -0.5900  -0.3759   -0.2605098475640797E-02   -0.1258956428934607E-04   -0.5573916839656910E-06    0.4900417255162857E+00    0.9012817706125111E-02    0.7284023773030339E-08   -0.4695243868181598E-11   -0.1567719912221044E-11    0.9240165056711991E-12    0.1180470803573141E-09
 -0.5911  -0.3812   -0.5214295194740110E-02   -0.4298423824897981E-05   -0.1104322191559082E-05    0.4955625712403475E+00    0.3742745668649773E-02    0.2309497971680623E-08   -0.8773106590156954E-11   -0.1303876711461482E-11    0.9850536185351810E-12    0.5283574207488873E-10
 -0.5918  -0.3843   -0.6772301012356898E-02   -0.1397817343391837E-06   -0.1400044265885101E-06    0.4988892435059468E+00    0.5863175962955928E-03    0.1200635379945016E-09   -0.1327450562665922E-10   -0.6885932796185656E-12    0.6898730718629675E-12    0.1347589037971678E-10
 -0.5920  -0.3853   -0.7292862494699485E-02    0.0000000000000000E+00    0.0000000000000000E+00    0.5000000000000000E+00   -0.1058180800714280E-03    0.0000000000000000E+00    0.0000000000000000E+00    0.0000000000000000E+00    0.0000000000000000E+00    0.0000000000000000E+00
 -0.3809   0.5921    0.2556935972870160E-01    0.0000000000000000E+00    0.0000000000000000E+00   -0.5000000000000000E+00   -0.4211304672394018E-02    0.0000000000000000E+00    0.0000000000000000E+00    0.0000000000000000E+00    0.0000000000000000E+00    0.0000000000000000E+00
 -0.3812   0.5911    0.2608631132316705E-01    0.1052055319201769E-05   -0.4218614553859769E-05   -0.4957130148201326E+00   -0.3817905799563535E-02   -0.2274622435605699E-08    0.1027589265198067E-08    0.3971976285203904E-12    0.4890297151602385E-12   -0.9016971522744777E-11
 -0.3818   0.5880    0.2761486877796619E-01    0.1273519359919317E-04   -0.1273784060662772E-04   -0.4828724270392731E+00   -0.3405343920358991E-02   -0.3112030440519564E-07    0.1028420537098340E-08    0.1219031603091891E-11    0.1229012117770489E-11   -0.3557444356455663E-10
 -0.3829   0.5827    0.3008872827866534E-01    0.4522791211468055E-04   -0.1584799634331810E-04   -0.4615514007161206E+00   -0.5847504573101972E-02   -0.1118553912892811E-06    0.1030272797630793E-08    0.1431807797325213E-11    0.1690812420629406E-11   -0.7966315627994103E-10
 -0.3845   0.5755    0.3338880379760771E-01    0.8760577738247005E-04   -0.1071381064766078E-04   -0.4319119040240987E+00   -0.1162267951473486E-01   -0.2136506072170613E-06    0.1032951600123122E-08    0.2092093859262789E-12    0.2105840675448167E-11   -0.1413163735336509E-09
 -0.3865   0.5662    0.3732421287744937E-01    0.1130383959473650E-03   -0.1710941766062334E-05   -0.3942624827221713E+00   -0.1631200549938223E-01   -0.2721024723621677E-06    0.1036123992376528E-08   -0.3009851048951795E-11    0.2447985065524849E-11   -0.2197024610850473E-09
 -0.3888   0.5549    0.4162810966503501E-01    0.1011460931096355E-03    0.6373351825430529E-05   -0.3491326912113390E+00   -0.1560007221235199E-01   -0.2411224604631956E-06    0.1039245130923794E-08   -0.8390264177871032E-11    0.2663525866877792E-11   -0.3132816644990655E-09
 -0.3917   0.5417    0.4597378670721050E-01    0.5218321250195741E-04    0.1031367838668668E-04   -0.2973581485203906E+00   -0.9194478430336054E-02   -0.1219155816139474E-06    0.1041719992385393E-08   -0.1554490564048550E-10    0.2715706782716043E-11   -0.4179459625608395E-09
 -0.3949   0.5266    0.4999969938756833E-01   -0.8412555519162040E-05    0.8229395032002601E-05   -0.2401687298134497E+00   -0.2409346040209522E-02    0.2939863250623387E-07    0.1043182448843410E-08   -0.2369187138140383E-10    0.2639243641341937E-11   -0.5259280649871911E-09