 title="result"
 variables="x","y","P","u","v","t","omega","psi","RES1","RES2","RES3","RES4"
zone,j= 49,i= 49,f=point
 -0.4450   0.5495    0.2417539760832024E-01    0.0000000000000000E+00    0.0000000000000000E+00   -0.5000000000000000E+00    0.0000000000000000E+00    0.0000000000000000E+00    0.0000000000000000E+00    0.0000000000000000E+00    0.0000000000000000E+00    0.0000000000000000E+00
 -0.4451   0.5485    0.2470347416561484E-01    0.0000000000000000E+00    0.0000000000000000E+00   -0.4960311185994317E+00   -0.2343953726578440E-03    0.0000000000000000E+00    0.0000000000000000E+00    0.0000000000000000E+00    0.0000000000000000E+00    0.0000000000000000E+00
 -0.4454   0.5453    0.2627297193161880E-01    0.0000000000000000E+00    0.0000000000000000E+00   -0.4841431361399529E+00   -0.4321106407501411E-02    0.0000000000000000E+00    0.0000000000000000E+00    0.0000000000000000E+00    0.0000000000000000E+00    0.0000000000000000E+00
 -0.4460   0.5400    0.2883699933653595E-01    0.0000000000000000E+00    0.0000000000000000E+00   -0.4644018041103501E+00   -0.7539809326297979E-02    0.0000000000000000E+00    0.0000000000000000E+00    0.0000000000000000E+00    0.0000000000000000E+00    0.0000000000000000E+00
 -0.4468   0.5326    0.3226858757973758E-01    0.0000000000000000E+00    0.0000000000000000E+00   -0.4369475332491084E+00    0.5616177999069231E-02    0.0000000000000000E+00    0.0000000000000000E+00    0.0000000000000000E+00    0.0000000000000000E+00    0.0000000000000000E+00
 -0.4478   0.5231    0.3633371048819509E-01    0.0000000000000000E+00    0.0000000000000000E+00   -0.4020342924937964E+00    0.4702577499673657E-01    0.0000000000000000E+00    0.0000000000000000E+00    0.0000000000000000E+00    0.0000000000000000E+00    0.0000000000000000E+00
 -0.4490   0.5117    0.4072238172038281E-01    0.0000000000000000E+00    0.0000000000000000E+00   -0.3600718899341293E+00    0.1173534840441878E+00    0.0000000000000000E+00    0.0000000000000000E+00    0.0000000000000000E+00    0.0000000000000000E+00    0.0000000000000000E+00
 -0.4504   0.4982    0.4508178346261132E-01    0.0000000000000000E+00    0.0000000000000000E+00   -0.3116721988080304E+00    0.2053240594369588E+00    0.0000000000000000E+00    0.0000000000000000E+00    0.0000000000000000E+00    0.0000000000000000E+00    0.0000000000000000E+00
 -0.4520   0.4829    0.4905083078964347E-01    0.0000000000000000E+00    0.0000000000000000E+00   -0.2577120953505352E+00    0.2900717240843192E+00    0.0000000000000000E+00    0.0000000000000000E+00    0.0000000000000000E+00    0.0000000000000000E+00    0.0000000000000000E+00
 -0.4538   0.4657    0.5229090434703786E-01    0.0000000000000000E+00    0.0000000000000000E+00   -0.1994268522586444E+00    0.3454735761992129E+00    0.0000000000000000E+00    0.0000000000000000E+00    0.0000000000000000E+00    0.0000000000000000E+00    0.0000000000000000E+00
 -0.4558   0.4468    0.5451364542815516E-01    0.0000000000000000E+00    0.0000000000000000E+00   -0.1385263367162515E+00    0.3453396836352987E+00    0.0000000000000000E+00    0.0000000000000000E+00    0.0000000000000000E+00    0.0000000000000000E+00    0.0000000000000000E+00
 -0.4580   0.4261    0.5550236855021345E-01    0.0000000000000000E+00    0.0000000000000000E+00   -0.7728243061988620E-01    0.2685932463851166E+00    0.0000000000000000E+00    0.0000000000000000E+00    0.0000000000000000E+00    0.0000000000000000E+00    0.0000000000000000E+00
 -0.4603   0.4039    0.5512710575532200E-01    0.0000000000000000E+00    0.0000000000000000E+00   -0.1848572217019573E-01    0.1026574104873683E+00    0.0000000000000000E+00    0.0000000000000000E+00    0.0000000000000000E+00    0.0000000000000000E+00    0.0000000000000000E+00
 -0.4628   0.3801    0.5335355882469929E-01    0.0000000000000000E+00    0.0000000000000000E+00    0.3484585175393638E-01   -0.1565173871501614E+00    0.0000000000000000E+00    0.0000000000000000E+00    0.0000000000000000E+00    0.0000000000000000E+00    0.0000000000000000E+00
 -0.4654   0.3550    0.5024794197905080E-01    0.0000000000000000E+00    0.0000000000000000E+00    0.8004388529823399E-01   -0.5079695336557335E+00    0.0000000000000000E+00    0.0000000000000000E+00    0.0000000000000000E+00    0.0000000000000000E+00    0.0000000000000000E+00
 -0.4682   0.3285    0.4597488998030101E-01    0.0000000000000000E+00    0.0000000000000000E+00    0.1154968313919542E+00   -0.9505116747564780E+00    0.0000000000000000E+00    0.0000000000000000E+00    0.0000000000000000E+00    0.0000000000000000E+00    0.0000000000000000E+00
 -0.4711   0.3009    0.4078414645553465E-01    0.0000000000000000E+00    0.0000000000000000E+00    0.1411422150282461E+00   -0.1485645958996606E+01    0.0000000000000000E+00    0.0000000000000000E+00    0.0000000000000000E+00    0.0000000000000000E+00    0.0000000000000000E+00
 -0.4741   0.2722    0.3498629285943256E-01    0.0000000000000000E+00    0.0000000000000000E+00    0.1584208971145985E+00   -0.2116827748873790E+01    0.0000000000000000E+00    0.0000000000000000E+00    0.0000000000000000E+00    0.0000000000000000E+00    0.0000000000000000E+00
 -0.4773   0.2426    0.2892740068325983E-01    0.0000000000000000E+00    0.0000000000000000E+00    0.1696782887997263E+00   -0.2845661800215316E+01    0.0000000000000000E+00    0.0000000000000000E+00    0.0000000000000000E+00    0.0000000000000000E+00    0.0000000000000000E+00
 -0.4805   0.2121    0.2297195770969161E-01    0.0000000000000000E+00    0.0000000000000000E+00    0.1773553706516655E+00   -0.3666938275409969E+01    0.0000000000000000E+00    0.0000000000000000E+00    0.0000000000000000E+00    0.0000000000000000E+00    0.0000000000000000E+00
 -0.4837   0.1810    0.1749346702014613E-01    0.0000000000000000E+00    0.0000000000000000E+00    0.1833946713415978E+00   -0.4564724941821091E+01    0.0000000000000000E+00    0.0000000000000000E+00    0.0000000000000000E+00    0.0000000000000000E+00    0.0000000000000000E+00
 -0.4871   0.1493    0.1286288055145047E-01    0.0000000000000000E+00    0.0000000000000000E+00    0.1890514642817185E+00   -0.5511074061389500E+01    0.0000000000000000E+00    0.0000000000000000E+00    0.0000000000000000E+00    0.0000000000000000E+00    0.0000000000000000E+00
 -0.4904   0.1172    0.9426997008415369E-02    0.0000000000000000E+00    0.0000000000000000E+00    0.1950116548827126E+00   -0.6467635039333965E+01    0.0000000000000000E+00    0.0000000000000000E+00    0.0000000000000000E+00    0.0000000000000000E+00    0.0000000000000000E+00
 -0.4938   0.0848    0.7476614958139822E-02    0.0000000000000000E+00    0.0000000000000000E+00    0.2016093986434403E+00   -0.7389144649525959E+01    0.0000000000000000E+00    0.0000000000000000E+00    0.0000000000000000E+00    0.0000000000000000E+00    0.0000000000000000E+00
 -0.4973   0.0523    0.7210809398900881E-02    0.0000000000000000E+00    0.0000000000000000E+00    0.2090037935181119E+00   -0.8227341319421823E+01    0.0000000000000000E+00    0.0000000000000000E+00    0.0000000000000000E+00    0.0000000000000000E+00    0.0000000000000000E+00
 -0.5007   0.0197    0.8704335665060474E-02    0.0000000000000000E+00    0.0000000000000000E+00    0.2172786734529202E+00   -0.8934264069367650E+01    0.0000000000000000E+00    0.0000000000000000E+00    0.0000000000000000E+00    0.0000000000000000E+00    0.0000000000000000E+00
 -0.5041  -0.0126    0.1188305044309309E-01    0.0000000000000000E+00    0.0000000000000000E+00    0.2264855227446566E+00   -0.9464803719494771E+01    0.0000000000000000E+00    0.0000000000000000E+00    0.0000000000000000E+00    0.0000000000000000E+00    0.0000000000000000E+00
 -0.5075  -0.0447    0.1651008643449781E-01    0.0000000000000000E+00    0.0000000000000000E+00    0.2366571484163004E+00   -0.9779090003623967E+01    0.0000000000000000E+00    0.0000000000000000E+00    0.0000000000000000E+00    0.0000000000000000E+00    0.0000000000000000E+00
 -0.5108  -0.0764    0.2218617329796112E-01    0.0000000000000000E+00    0.0000000000000000E+00    0.2478094789328528E+00   -0.9845570633971567E+01    0.0000000000000000E+00    0.0000000000000000E+00    0.0000000000000000E+00    0.0000000000000000E+00    0.0000000000000000E+00
 -0.5141  -0.1076    0.2836915631792485E-01    0.0000000000000000E+00    0.0000000000000000E+00    0.2599394319561410E+00   -0.9645239273367203E+01    0.0000000000000000E+00    0.0000000000000000E+00    0.0000000000000000E+00    0.0000000000000000E+00    0.0000000000000000E+00
 -0.5173  -0.1380    0.3441835874947870E-01    0.0000000000000000E+00    0.0000000000000000E+00    0.2730220485960475E+00   -0.9176629198997389E+01    0.0000000000000000E+00    0.0000000000000000E+00    0.0000000000000000E+00    0.0000000000000000E+00    0.0000000000000000E+00
 -0.5204  -0.1677    0.3966539589132870E-01    0.0000000000000000E+00    0.0000000000000000E+00    0.2870082863933343E+00   -0.8460140168360162E+01    0.0000000000000000E+00    0.0000000000000000E+00    0.0000000000000000E+00    0.0000000000000000E+00    0.0000000000000000E+00
 -0.5234  -0.1964    0.4350428864274337E-01    0.0000000000000000E+00    0.0000000000000000E+00    0.3018241154477601E+00   -0.7539627446135962E+01    0.0000000000000000E+00    0.0000000000000000E+00    0.0000000000000000E+00    0.0000000000000000E+00    0.0000000000000000E+00
 -0.5263  -0.2240    0.4548270376899755E-01    0.0000000000000000E+00    0.0000000000000000E+00    0.3173709368161975E+00   -0.6479406950685471E+01    0.0000000000000000E+00    0.0000000000000000E+00    0.0000000000000000E+00    0.0000000000000000E+00    0.0000000000000000E+00
 -0.5291  -0.2504    0.4536976150107713E-01    0.0000000000000000E+00    0.0000000000000000E+00    0.3335266066451404E+00   -0.5356235652012583E+01    0.0000000000000000E+00    0.0000000000000000E+00    0.0000000000000000E+00    0.0000000000000000E+00    0.0000000000000000E+00
 -0.5317  -0.2756    0.4317959576547312E-01    0.0000000000000000E+00    0.0000000000000000E+00    0.3501457039438426E+00   -0.4247860742446846E+01    0.0000000000000000E+00    0.0000000000000000E+00    0.0000000000000000E+00    0.0000000000000000E+00    0.0000000000000000E+00
 -0.5342  -0.2994    0.3914451308851350E-01    0.0000000000000000E+00    0.0000000000000000E+00    0.3670575940894089E+00   -0.3221388681893445E+01    0.0000000000000000E+00    0.0000000000000000E+00    0.0000000000000000E+00    0.0000000000000000E+00    0.0000000000000000E+00
 -0.5366  -0.3216    0.3364976922854181E-01    0.0000000000000000E+00    0.0000000000000000E+00    0.3840617867308485E+00   -0.2324899422642997E+01    0.0000000000000000E+00    0.0000000000000000E+00    0.0000000000000000E+00    0.0000000000000000E+00    0.0000000000000000E+00
 -0.5387  -0.3422    0.2715388962652619E-01    0.0000000000000000E+00    0.0000000000000000E+00    0.4009221200811547E+00   -0.1584325260493207E+01    0.0000000000000000E+00    0.0000000000000000E+00    0.0000000000000000E+00    0.0000000000000000E+00    0.0000000000000000E+00
 -0.5407  -0.3612    0.2011841637376982E-01    0.0000000000000000E+00    0.0000000000000000E+00    0.4173636412598071E+00   -0.1005440752085109E+01    0.0000000000000000E+00    0.0000000000000000E+00    0.0000000000000000E+00    0.0000000000000000E+00    0.0000000000000000E+00
 -0.5425  -0.3784    0.1296129287059161E-01    0.0000000000000000E+00    0.0000000000000000E+00    0.4330771346322847E+00   -0.5790799580169409E+00    0.0000000000000000E+00    0.0000000000000000E+00    0.0000000000000000E+00    0.0000000000000000E+00    0.0000000000000000E+00
 -0.5441  -0.3937    0.6036002805748666E-02    0.0000000000000000E+00    0.0000000000000000E+00    0.4477346040061838E+00   -0.2871039575996566E+00    0.0000000000000000E+00    0.0000000000000000E+00    0.0000000000000000E+00    0.0000000000000000E+00    0.0000000000000000E+00
 -0.5455  -0.4071   -0.3705732749849574E-03    0.0000000000000000E+00    0.0000000000000000E+00    0.4610145883156934E+00   -0.1070264631109571E+00    0.0000000000000000E+00    0.0000000000000000E+00    0.0000000000000000E+00    0.0000000000000000E+00    0.0000000000000000E+00
 -0.5468  -0.4186   -0.6031932335887486E-02    0.0000000000000000E+00    0.0000000000000000E+00    0.4726309805765536E+00   -0.1437024481188213E-01    0.0000000000000000E+00    0.0000000000000000E+00    0.0000000000000000E+00    0.0000000000000000E+00    0.0000000000000000E+00
 -0.5477  -0.4281   -0.1077764980621560E-01    0.0000000000000000E+00    0.0000000000000000E+00    0.4823561352324385E+00    0.1701728250648744E-01    0.0000000000000000E+00    0.0000000000000000E+00    0.0000000000000000E+00    0.0000000000000000E+00    0.0000000000000000E+00
 -0.5485  -0.4354   -0.1449551627386324E-01    0.0000000000000000E+00    0.0000000000000000E+00    0.4900306552846348E+00    0.1450335557141674E-01    0.0000000000000000E+00    0.0000000000000000E+00    0.0000000000000000E+00    0.0000000000000000E+00    0.0000000000000000E+00
 -0.5491  -0.4407   -0.1713809370949954E-01    0.0000000000000000E+00    0.0000000000000000E+00    0.4955579224380783E+00    0.3835930448982964E-02    0.0000000000000000E+00    0.0000000000000000E+00    0.0000000000000000E+00    0.0000000000000000E+00    0.0000000000000000E+00
 -0.5494  -0.4439   -0.1871853703905035E-01    0.0000000000000000E+00    0.0000000000000000E+00    0.4988880965692714E+00   -0.1321862424683046E-03    0.0000000000000000E+00    0.0000000000000000E+00    0.0000000000000000E+00    0.0000000000000000E+00    0.0000000000000000E+00
 -0.5495  -0.4450   -0.1924816829429430E-01    0.0000000000000000E+00    0.0000000000000000E+00    0.5000000000000000E+00    0.0000000000000000E+00    0.0000000000000000E+00    0.0000000000000000E+00    0.0000000000000000E+00    0.0000000000000000E+00    0.0000000000000000E+00
 -0.4439   0.5494    0.2423349308344379E-01    0.0000000000000000E+00    0.0000000000000000E+00   -0.5000000000000000E+00   -0.2345266759551466E-03    0.0000000000000000E+00    0.0000000000000000E+00    0.0000000000000000E+00    0.0000000000000000E+00    0.0000000000000000E+00
 -0.4440   0.5483    0.2476134862116301E-01    0.2834940250743483E-06   -0.2835812533178000E-06   -0.4960310349771437E+00   -0.5350279983675344E-03   -0.1979450034445803E-09    0.4106524420640842E-09    0.4964068029246829E-12    0.5002478466187288E-12   -0.5351603491951518E-11
 -0.4444   0.5452    0.2632955231197919E-01    0.3590865460783930E-05   -0.6938239290831801E-06   -0.4841428028858113E+00   -0.2419801843522017E-02   -0.2062513733695344E-08    0.4139277128521746E-09    0.8954737992783457E-12    0.6962154377315732E-12   -0.2252305980610103E-10
 -0.4449   0.5399    0.2888755891490561E-01    0.5559786675057054E-05    0.2645877120955260E-06   -0.4644010663919035E+00   -0.2772749415172632E-02   -0.3441725227922789E-08    0.4170109103949354E-09    0.9364661823774156E-12    0.6614212216121684E-12   -0.5147964866891730E-10
 -0.4457   0.5325    0.3230885104088357E-01   -0.8761833291979985E-05    0.1739314288745704E-05   -0.4369462678273647E+00    0.1077359075402826E-01    0.4233952221178226E-08    0.4193899802093504E-09    0.8126398859387152E-12    0.6856737400084967E-12   -0.9206457297905590E-10
 -0.4467   0.5230    0.3636382385422756E-01   -0.5182888868401030E-04    0.3032491260772893E-05   -0.4020324112260162E+00    0.4981527590205720E-01    0.2746997269976323E-07    0.4215581330194174E-09    0.5986452653039542E-12    0.6981255851190582E-12   -0.1461924435675055E-09
 -0.4479   0.5116    0.4074462323590736E-01   -0.1247296325848226E-03    0.3667161790502720E-05   -0.3600693120046828E+00    0.1156431296116317E+00    0.6694118101958471E-07    0.4236394004694666E-09    0.3388912414581391E-12    0.7034373084024992E-12   -0.2156672063158283E-09
 -0.4493   0.4981    0.4509944898940055E-01   -0.2158959586501018E-03    0.3504864395825127E-05   -0.3116688074870050E+00    0.1979809090797995E+00    0.1162507579724925E-06    0.4261089554119524E-09    0.7603292995206345E-13    0.6822233750147788E-12   -0.3053540059694271E-09
 -0.4509   0.4828    0.4906716580974076E-01   -0.3035074148667871E-03    0.2545677389518671E-05   -0.2577077082107890E+00    0.2768911592038826E+00    0.1637173364704520E-06    0.4295139192228570E-09   -0.2135930321500723E-12    0.6840916721984058E-12   -0.4206043881238575E-09
 -0.4527   0.4656    0.5230861916524361E-01   -0.3600358808963610E-03    0.9523109905781197E-06   -0.1994212331639593E+00    0.3270960224551840E+00    0.1944556789284165E-06    0.4346314269858959E-09   -0.6216555048510486E-12    0.7064175633342273E-12   -0.5663652255516460E-09
 -0.4547   0.4467    0.5453446334293861E-01   -0.3577565689949910E-03   -0.1055624295912261E-05   -0.1385192681394130E+00    0.3229676178490685E+00    0.1936283418555218E-06    0.4422608997772803E-09   -0.1270275551412681E-11    0.6855731260468900E-12   -0.7442782432032224E-09
 -0.4569   0.4260    0.5552698362438039E-01   -0.2742359997027724E-03   -0.3202674406293078E-05   -0.7727384707584987E-01    0.2436872863727202E+00    0.1491554823486266E-06    0.4532346685459654E-09   -0.2267061538496762E-11    0.6708435890123710E-12   -0.9456572261368201E-09
 -0.4592   0.4038    0.5515536232906216E-01   -0.9595777073794015E-04   -0.5267029857915831E-05   -0.1847586989385790E-01    0.7656538100058523E-01    0.5385155547953882E-07    0.4682012156448367E-09   -0.3639977208536038E-11    0.6663489204861150E-12   -0.1145026351512257E-08
 -0.4617   0.3800    0.5338503211646069E-01    0.1815841436466683E-03   -0.7115873419412786E-05    0.3485631618161106E-01   -0.1827585483938833E+00   -0.9469925905264195E-07    0.4872753520124284E-09   -0.5354328092010974E-11    0.6484396353201305E-12   -0.1296808549433592E-08
 -0.4644   0.3549    0.5028249235133631E-01    0.5575211780573346E-03   -0.8756587620534502E-05    0.8005396977043779E-01   -0.5336336247862083E+00   -0.2959748704332123E-06    0.5094882814249413E-09   -0.7353742614846226E-11    0.5989306273157524E-12   -0.1343428507327715E-08
 -0.4672   0.3284    0.4601300455151621E-01    0.1030620047328612E-02   -0.1027235009886481E-04    0.1155054960793444E+00   -0.9749370079232619E+00   -0.5493328073009483E-06    0.5322734961121789E-09   -0.9609514572961331E-11    0.5671851877053768E-12   -0.1235030057389341E-08
 -0.4701   0.3008    0.4082676550811720E-01    0.1602351115235871E-02   -0.1176094892638183E-04    0.1411487486195629E+00   -0.1507918747860253E+01   -0.8555638216791818E-06    0.5516769957525369E-09   -0.1213258660204275E-10    0.4536995779069741E-12   -0.9530059449924799E-09
 -0.4731   0.2721    0.3503435351124681E-01    0.2276118831454665E-02   -0.1324882349677697E-04    0.1584251485922817E+00   -0.2135478292643465E+01   -0.1216560120709127E-05    0.5632102631492053E-09   -0.1496978235815405E-10    0.3786970736996409E-12   -0.5230600189087831E-09
 -0.4762   0.2424    0.2898125261108300E-01    0.3053246958822323E-02   -0.1467623110991789E-04    0.1696806117934017E+00   -0.2858486491925918E+01   -0.1633085594333233E-05    0.5629549083840946E-09   -0.1815468608779014E-10    0.2750161209874591E-12   -0.6056646503771468E-11
 -0.4794   0.2120    0.2303097711535652E-01    0.3927753424489455E-02   -0.1589711642822848E-04    0.1773563565399663E+00   -0.3670973797554115E+01   -0.2102022731545133E-05    0.5482278415958053E-09   -0.2164446226415873E-10    0.1512956426807932E-12    0.5266574077886221E-09
 -0.4827   0.1809    0.1755590065989727E-01    0.4882269930578425E-02   -0.1673154030866048E-04    0.1833948754728126E+00   -0.4556426581180681E+01   -0.2614120322764163E-05    0.5176772725767886E-09   -0.2524613504362172E-10    0.6535050278699828E-13    0.1017369838547666E-08
 -0.4860   0.1492    0.1292599949702321E-01    0.5886751303551604E-02   -0.1700636072462115E-04    0.1890512675862889E+00   -0.5486660493987775E+01   -0.3153326892978327E-05    0.4711415979574696E-09   -0.2861402087495080E-10   -0.8271161533457416E-13    0.1432745391511531E-08
 -0.4894   0.1171    0.9487376710891227E-02    0.6900253860510431E-02   -0.1659949092907741E-04    0.1950112620862500E+00   -0.6423535934760087E+01   -0.3697700300550324E-05    0.4094173576552063E-09   -0.3132953618756318E-10   -0.1801753191088551E-12    0.1761830898620170E-08
 -0.4928   0.0847    0.7530478713602975E-02    0.7874678729615149E-02   -0.1544315421893654E-04    0.2016088978782911E+00   -0.7322457198660116E+01   -0.4221435656967432E-05    0.3344426437179582E-09   -0.3298278317132031E-10   -0.2627342787775433E-12    0.2008223027108458E-08
 -0.4962   0.0522    0.7254264908309661E-02    0.8758933837066408E-02   -0.1351981306685589E-04    0.2090032143798785E+00   -0.8136234988815310E+01   -0.4697079718714237E-05    0.2489601198807367E-09   -0.3332509268538786E-10   -0.3322273012251742E-12    0.2181111828473969E-08
 -0.4996   0.0196    0.8733549999029198E-02    0.9502425858969118E-02   -0.1083965767639557E-04    0.2172780221333827E+00   -0.8818311810333554E+01   -0.5097418737695720E-05    0.1565842594475342E-09   -0.3229810863203397E-10   -0.3249414626260716E-12    0.2290695584605817E-08
 -0.5030  -0.0128    0.1189434005322692E-01    0.1005775032599324E-01   -0.7435879096017068E-05    0.2264847982364326E+00   -0.9325233887379554E+01   -0.5396920820658026E-05    0.6129386928566127E-10   -0.3000028003796729E-10   -0.3133257542309309E-12    0.2346327489070876E-08
 -0.5064  -0.0449    0.1650007254961858E-01    0.1038320424195149E-01   -0.3367507321942962E-05    0.2366563488141547E+00   -0.9618963098859778E+01   -0.5573086770566683E-05   -0.3292654343622914E-10   -0.2670741405808030E-10   -0.2286885958380225E-12    0.2356182728091571E-08
 -0.5097  -0.0765    0.2215201398555062E-01    0.1044601642188791E-01    0.1255020275143250E-05    0.2478086036776795E+00   -0.9669826115702117E+01   -0.5608199588805242E-05   -0.1225171084376364E-09   -0.2273664589935720E-10   -0.1133182089829710E-12    0.2326763441640178E-08
 -0.5130  -0.1077    0.2830895373143401E-01    0.1022676628364812E-01    0.6243653437396583E-05    0.2599384824783657E+00   -0.9460550876314558E+01   -0.5491693172112323E-05   -0.2048141396066017E-09   -0.1848948771865366E-10    0.3025357742103552E-13    0.2263688840542510E-08
 -0.5162  -0.1381    0.3433162529662729E-01    0.9724572931643380E-02    0.1131191361259994E-04    0.2730210280752452E+00   -0.8990955621819555E+01   -0.5222981070653289E-05   -0.2781113186967055E-09   -0.1435601637567174E-10    0.1950176131693127E-12    0.2171553607072108E-08
 -0.5193  -0.1678    0.3955351476135210E-01    0.8961550116664635E-02    0.1608410923945950E-04    0.2870071987816927E+00   -0.8281958810598736E+01   -0.4813841258540598E-05   -0.3419005113747264E-09   -0.1068789501346146E-10    0.3571865025975285E-12    0.2055591023786274E-08
 -0.5223  -0.1965    0.4337070902394317E-01    0.7984368761913984E-02    0.2014130937114763E-04    0.3018229639430145E+00   -0.7376891845905605E+01   -0.4289317412818501E-05   -0.3967923281611441E-09   -0.7729594742045265E-11    0.5262179580967086E-12    0.1919158738178384E-08
 -0.5252  -0.2241    0.4533278205829088E-01    0.6861026261409854E-02    0.2310033844472170E-04    0.3173697222861973E+00   -0.6338478418782540E+01   -0.3685943720422767E-05   -0.4440637926816926E-09   -0.5627498467219993E-11    0.6862010959451936E-12    0.1767077227599056E-08
 -0.5280  -0.2506    0.4521012513841065E-01    0.5672392577271174E-02    0.2470408839883058E-04    0.3335253268952682E+00   -0.5241036086657133E+01   -0.3047257781985684E-05   -0.4852855547965440E-09   -0.4360456440366534E-11    0.7694678227920804E-12    0.1602998360786256E-08
 -0.5307  -0.2757    0.4301723997734416E-01    0.4500217164100073E-02    0.2488202332771939E-04    0.3501443549038998E+00   -0.4159550327816988E+01   -0.2417259308645928E-05   -0.5218266027617879E-09   -0.3783112711985837E-11    0.8649192473342282E-12    0.1432033776282982E-08
 -0.5332  -0.2995    0.3898580609157194E-01    0.3414986044913231E-02    0.2376353785759247E-04    0.3670561737038590E+00   -0.3158586205209181E+01   -0.1833945154581656E-05   -0.5545635409220928E-09   -0.3676670079499900E-11    0.9465345174319850E-12    0.1257773760143799E-08
 -0.5355  -0.3217    0.3349974428591366E-01    0.2467184300561228E-02    0.2162451104490461E-04    0.3840603013675826E+00   -0.2284391696164295E+01   -0.1324481964859447E-05   -0.5837278577169869E-09   -0.3781072677178088E-11    0.9313105842068126E-12    0.1084546752752602E-08
 -0.5377  -0.3424    0.2701589823018866E-01    0.1684053746190076E-02    0.1881053778234966E-04    0.4009205917830332E+00   -0.1561913016474307E+01   -0.9035827558018522E-06   -0.6092130896973025E-09   -0.3877065335444740E-11    0.9457989946781709E-12    0.9160131004409822E-09
 -0.5397  -0.3613    0.1999426303487608E-01    0.1071674650633509E-02    0.1564135144514551E-04    0.4173621127594282E+00   -0.9967531668136801E+00   -0.5744732719575750E-06   -0.6306573666070570E-09   -0.3817623300816919E-11    0.9295203495796045E-12    0.7556810125569635E-09
 -0.5415  -0.3785    0.1285159250277986E-01    0.6204112677829199E-03    0.1236518520692037E-04    0.4330756686970341E+00   -0.5800550497321060E+00   -0.3320220620276663E-06   -0.6478865256787092E-09   -0.3555232280447185E-11    0.9280007318146488E-12    0.6060680256270157E-09
 -0.5431  -0.3938    0.5940679923256038E-02    0.3111268313764950E-03    0.9126675772323591E-05    0.4477332750700502E+00   -0.2942358888247649E+00   -0.1658644678881476E-06   -0.6609237081234287E-09   -0.3113523328046597E-11    0.9016745683432248E-12    0.4696024142464283E-09
 -0.5445  -0.4073   -0.4520311650425715E-03    0.1200053334432956E-03    0.6022972730620697E-05    0.4610134672953776E+00   -0.1172513282875222E+00   -0.6329660821280212E-07   -0.6702155375820640E-09   -0.2578694202615139E-11    0.9063826078570258E-12    0.3481890600495752E-09
 -0.5457  -0.4187   -0.6100524170500503E-02    0.2099768089634742E-04    0.3147515423071764E-05    0.4726301170970967E+00   -0.2496333618844646E-01   -0.1023231953420879E-07   -0.6764269708595116E-09   -0.2059147991007038E-11    0.8874151413706954E-12    0.2433736641035966E-09
 -0.5467  -0.4282   -0.1083546542708647E-01   -0.1374579951366236E-04    0.7493035347845260E-06    0.4823555436402825E+00    0.8591503241749537E-02    0.8111624519129172E-08   -0.6806323627536054E-09   -0.1649402836534364E-11    0.8964487138718447E-12    0.1567800273286069E-09
 -0.5475  -0.4356   -0.1454674361475253E-01   -0.1323941236175454E-04   -0.8061673729377766E-06    0.4900303103855109E+00    0.1012465587715995E-01    0.7538249841445752E-08   -0.6838613490593726E-09   -0.1389503095916567E-11    0.8739927184753249E-12    0.8850520750308677E-10
 -0.5480  -0.4409   -0.1718958072834392E-01   -0.3927657791017880E-05   -0.1053112511156112E-05    0.4955577672080815E+00    0.3605765022219834E-02    0.2083194751595055E-08   -0.6876660126747813E-09   -0.1205205423307487E-11    0.9227774794284826E-12    0.3942240175795753E-10
 -0.5483  -0.4440   -0.1877231590306436E-01   -0.1053342012527909E-06   -0.1056148936078325E-06    0.4988880576705048E+00    0.5205234277631760E-03    0.9173225333208818E-10   -0.6918990603436807E-09   -0.6443140292133887E-12    0.6328436039093610E-12    0.1014965021750580E-10
 -0.5485  -0.4451   -0.1930201011274002E-01    0.0000000000000000E+00    0.0000000000000000E+00    0.5000000000000000E+00   -0.1316077039170035E-03    0.0000000000000000E+00    0.0000000000000000E+00    0.0000000000000000E+00    0.0000000000000000E+00    0.0000000000000000E+00
 -0.4407   0.5491    0.2439472079436127E-01    0.0000000000000000E+00    0.0000000000000000E+00   -0.5000000000000000E+00   -0.4321302133608350E-02    0.0000000000000000E+00    0.0000000000000000E+00    0.0000000000000000E+00    0.0000000000000000E+00    0.0000000000000000E+00
 -0.4409   0.5480    0.2492253945709138E-01    0.6936440559865980E-06   -0.3590863625116311E-05   -0.4960297861429506E+00   -0.2419607505043194E-02   -0.2062544172510967E-08    0.4137850897426715E-09    0.6843453212966588E-12    0.9076022810909634E-12   -0.5526352270766866E-11
 -0.4412   0.5448    0.2648874670481191E-01    0.5107939181659331E-05   -0.5108443575301020E-05   -0.4841378283227900E+00    0.2106416155373053E-02   -0.1897176989528830E-07    0.4150355749181489E-09    0.2093796056673591E-11    0.2184330190682648E-11   -0.2277253299126647E-10
 -0.4417   0.5395    0.2903435988089526E-01   -0.5911987191630105E-06    0.6609545014336936E-05   -0.4643900316657290E+00    0.8620661283475054E-02   -0.1894688429151154E-07    0.4171694413523941E-09    0.2871373278034994E-11    0.2677167515452439E-11   -0.5144562120057428E-10
 -0.4425   0.5321    0.3243138121858901E-01   -0.6114509492875102E-04    0.2697288008271592E-04   -0.4369272038832576E+00    0.2349835401141183E-01    0.1074497678190795E-06    0.4193852036482593E-09    0.2815742430883894E-11    0.2846777501230857E-11   -0.9188443582386352E-10
 -0.4435   0.5227    0.3645953313226834E-01   -0.2204599033147554E-03    0.4550659640584433E-04   -0.4020037695243962E+00    0.5614988268711545E-01    0.4597816353382348E-06    0.4214781232358966E-09    0.2250807179526859E-11    0.2888017949786992E-11   -0.1459137463633020E-09
 -0.4447   0.5112    0.4081817284213045E-01   -0.4855920583625181E-03    0.5497060722854734E-04   -0.3600296474889994E+00    0.1093694251925549E+00    0.1051227617378471E-05    0.4235962969278972E-09    0.1442886608804539E-11    0.2887048239363921E-11   -0.2155984349383466E-09
 -0.4461   0.4978    0.4515914348921195E-01   -0.8158279176246865E-03    0.5233459108343342E-04   -0.3116162488840614E+00    0.1754999402875619E+00    0.1789400439387618E-05    0.4260850977599873E-09    0.5634624711259306E-12    0.2888134176259882E-11   -0.3053501514138635E-09
 -0.4477   0.4825    0.4912189180829837E-01   -0.1130000633014545E-02    0.3759149607473502E-04   -0.2576396059265462E+00    0.2374422918190159E+00    0.2495198553744468E-05    0.4295255782993390E-09   -0.4535018194307128E-12    0.2905425899868419E-11   -0.4203693504400974E-09