 title="result"
 variables="x","y","P","u","v","t","omega","psi","RES1","RES2","RES3","RES4"
zone,j= 49,i= 49,f=point
 -0.1969   0.6791    0.2436737001892003E-01    0.0000000000000000E+00    0.0000000000000000E+00   -0.5000000000000000E+00    0.0000000000000000E+00    0.0000000000000000E+00    0.0000000000000000E+00    0.0000000000000000E+00    0.0000000000000000E+00    0.0000000000000000E+00
 -0.1975   0.6782    0.2483395143269367E-01    0.0000000000000000E+00    0.0000000000000000E+00   -0.4949300483264116E+00    0.5061808195206564E-03    0.0000000000000000E+00    0.0000000000000000E+00    0.0000000000000000E+00    0.0000000000000000E+00    0.0000000000000000E+00
 -0.1990   0.6754    0.2617519786309953E-01    0.0000000000000000E+00    0.0000000000000000E+00   -0.4797450848379152E+00   -0.4807506807379784E-02    0.0000000000000000E+00    0.0000000000000000E+00    0.0000000000000000E+00    0.0000000000000000E+00    0.0000000000000000E+00
 -0.2016   0.6707    0.2831002813104618E-01    0.0000000000000000E+00    0.0000000000000000E+00   -0.4545394265078038E+00   -0.4652698075021344E-01    0.0000000000000000E+00    0.0000000000000000E+00    0.0000000000000000E+00    0.0000000000000000E+00    0.0000000000000000E+00
 -0.2052   0.6642    0.3121099613327590E-01    0.0000000000000000E+00    0.0000000000000000E+00   -0.4195409730562908E+00   -0.1473656189424900E+00    0.0000000000000000E+00    0.0000000000000000E+00    0.0000000000000000E+00    0.0000000000000000E+00    0.0000000000000000E+00
 -0.2097   0.6559    0.3482589536423953E-01    0.0000000000000000E+00    0.0000000000000000E+00   -0.3752327625696057E+00   -0.3027677867889228E+00    0.0000000000000000E+00    0.0000000000000000E+00    0.0000000000000000E+00    0.0000000000000000E+00    0.0000000000000000E+00
 -0.2153   0.6458    0.3900759439238231E-01    0.0000000000000000E+00    0.0000000000000000E+00   -0.3225308429846760E+00   -0.4869891878476141E+00    0.0000000000000000E+00    0.0000000000000000E+00    0.0000000000000000E+00    0.0000000000000000E+00    0.0000000000000000E+00
 -0.2218   0.6340    0.4349044878659569E-01    0.0000000000000000E+00    0.0000000000000000E+00   -0.2629729090281219E+00   -0.6633454326776278E+00    0.0000000000000000E+00    0.0000000000000000E+00    0.0000000000000000E+00    0.0000000000000000E+00    0.0000000000000000E+00
 -0.2292   0.6204    0.4789451746073404E-01    0.0000000000000000E+00    0.0000000000000000E+00   -0.1988231702148063E+00   -0.7968701080830585E+00    0.0000000000000000E+00    0.0000000000000000E+00    0.0000000000000000E+00    0.0000000000000000E+00    0.0000000000000000E+00
 -0.2376   0.6053    0.5176829041456863E-01    0.0000000000000000E+00    0.0000000000000000E+00   -0.1329908474614677E+00   -0.8669629335482177E+00    0.0000000000000000E+00    0.0000000000000000E+00    0.0000000000000000E+00    0.0000000000000000E+00    0.0000000000000000E+00
 -0.2468   0.5886    0.5466010094488025E-01    0.0000000000000000E+00    0.0000000000000000E+00   -0.6872408403026059E-01   -0.8772092361153547E+00    0.0000000000000000E+00    0.0000000000000000E+00    0.0000000000000000E+00    0.0000000000000000E+00    0.0000000000000000E+00
 -0.2568   0.5704    0.5620952120127840E-01    0.0000000000000000E+00    0.0000000000000000E+00   -0.9151767933422778E-02   -0.8574024738032721E+00    0.0000000000000000E+00    0.0000000000000000E+00    0.0000000000000000E+00    0.0000000000000000E+00    0.0000000000000000E+00
 -0.2676   0.5508    0.5622447933403489E-01    0.0000000000000000E+00    0.0000000000000000E+00    0.4317912413336200E-01   -0.8544200734109438E+00    0.0000000000000000E+00    0.0000000000000000E+00    0.0000000000000000E+00    0.0000000000000000E+00    0.0000000000000000E+00
 -0.2791   0.5299    0.5470970210750442E-01    0.0000000000000000E+00    0.0000000000000000E+00    0.8664096825675743E-01   -0.9153812798986736E+00    0.0000000000000000E+00    0.0000000000000000E+00    0.0000000000000000E+00    0.0000000000000000E+00    0.0000000000000000E+00
 -0.2913   0.5078    0.5183110068742117E-01    0.0000000000000000E+00    0.0000000000000000E+00    0.1206832997826860E+00   -0.1073138093937907E+01    0.0000000000000000E+00    0.0000000000000000E+00    0.0000000000000000E+00    0.0000000000000000E+00    0.0000000000000000E+00
 -0.3041   0.4845    0.4784514278492769E-01    0.0000000000000000E+00    0.0000000000000000E+00    0.1458091886387032E+00   -0.1342641661015137E+01    0.0000000000000000E+00    0.0000000000000000E+00    0.0000000000000000E+00    0.0000000000000000E+00    0.0000000000000000E+00
 -0.3175   0.4601    0.4303709815798382E-01    0.0000000000000000E+00    0.0000000000000000E+00    0.1633776960198263E+00   -0.1726888175372378E+01    0.0000000000000000E+00    0.0000000000000000E+00    0.0000000000000000E+00    0.0000000000000000E+00    0.0000000000000000E+00
 -0.3314   0.4348    0.3769300205765103E-01    0.0000000000000000E+00    0.0000000000000000E+00    0.1752564858400776E+00   -0.2224190435036438E+01    0.0000000000000000E+00    0.0000000000000000E+00    0.0000000000000000E+00    0.0000000000000000E+00    0.0000000000000000E+00
 -0.3458   0.4087    0.3209744587785540E-01    0.0000000000000000E+00    0.0000000000000000E+00    0.1834043664556600E+00   -0.2830795517118125E+01    0.0000000000000000E+00    0.0000000000000000E+00    0.0000000000000000E+00    0.0000000000000000E+00    0.0000000000000000E+00
 -0.3605   0.3819    0.2654090647913995E-01    0.0000000000000000E+00    0.0000000000000000E+00    0.1895136903676065E+00   -0.3539333962101582E+01    0.0000000000000000E+00    0.0000000000000000E+00    0.0000000000000000E+00    0.0000000000000000E+00    0.0000000000000000E+00
 -0.3756   0.3545    0.2132484583049250E-01    0.0000000000000000E+00    0.0000000000000000E+00    0.1948211316389375E+00   -0.4336337360018816E+01    0.0000000000000000E+00    0.0000000000000000E+00    0.0000000000000000E+00    0.0000000000000000E+00    0.0000000000000000E+00
 -0.3910   0.3265    0.1676007628431224E-01    0.0000000000000000E+00    0.0000000000000000E+00    0.2001044873025734E+00   -0.5201057554919639E+01    0.0000000000000000E+00    0.0000000000000000E+00    0.0000000000000000E+00    0.0000000000000000E+00    0.0000000000000000E+00
 -0.4066   0.2983    0.1315568815164411E-01    0.0000000000000000E+00    0.0000000000000000E+00    0.2057956784083534E+00   -0.6105982572360139E+01    0.0000000000000000E+00    0.0000000000000000E+00    0.0000000000000000E+00    0.0000000000000000E+00    0.0000000000000000E+00
 -0.4223   0.2697    0.1080003669110327E-01    0.0000000000000000E+00    0.0000000000000000E+00    0.2121175406787920E+00   -0.7018518965767955E+01    0.0000000000000000E+00    0.0000000000000000E+00    0.0000000000000000E+00    0.0000000000000000E+00    0.0000000000000000E+00
 -0.4380   0.2411    0.9937189076402897E-02    0.0000000000000000E+00    0.0000000000000000E+00    0.2191872229093811E+00   -0.7902882950782962E+01    0.0000000000000000E+00    0.0000000000000000E+00    0.0000000000000000E+00    0.0000000000000000E+00    0.0000000000000000E+00
 -0.4538   0.2124    0.1074307708947151E-01    0.0000000000000000E+00    0.0000000000000000E+00    0.2270744994395051E+00   -0.8721430032387232E+01    0.0000000000000000E+00    0.0000000000000000E+00    0.0000000000000000E+00    0.0000000000000000E+00    0.0000000000000000E+00
 -0.4695   0.1839    0.1330271037315266E-01    0.0000000000000000E+00    0.0000000000000000E+00    0.2358273872955069E+00   -0.9435111200433427E+01    0.0000000000000000E+00    0.0000000000000000E+00    0.0000000000000000E+00    0.0000000000000000E+00    0.0000000000000000E+00
 -0.4851   0.1556    0.1758833448523767E-01    0.0000000000000000E+00    0.0000000000000000E+00    0.2454803141449959E+00   -0.1000349147162108E+02    0.0000000000000000E+00    0.0000000000000000E+00    0.0000000000000000E+00    0.0000000000000000E+00    0.0000000000000000E+00
 -0.5004   0.1277    0.2343814509867159E-01    0.0000000000000000E+00    0.0000000000000000E+00    0.2560546055082449E+00   -0.1038526417506889E+02    0.0000000000000000E+00    0.0000000000000000E+00    0.0000000000000000E+00    0.0000000000000000E+00    0.0000000000000000E+00
 -0.5155   0.1003    0.3053882158231554E-01    0.0000000000000000E+00    0.0000000000000000E+00    0.2675559476837515E+00   -0.1054045499223421E+02    0.0000000000000000E+00    0.0000000000000000E+00    0.0000000000000000E+00    0.0000000000000000E+00    0.0000000000000000E+00
 -0.5303   0.0735    0.3841973567722939E-01    0.0000000000000000E+00    0.0000000000000000E+00    0.2799708459184550E+00   -0.1043514240093344E+02    0.0000000000000000E+00    0.0000000000000000E+00    0.0000000000000000E+00    0.0000000000000000E+00    0.0000000000000000E+00
 -0.5447   0.0474    0.4647095993236454E-01    0.0000000000000000E+00    0.0000000000000000E+00    0.2932631693605466E+00   -0.1004868308324945E+02    0.0000000000000000E+00    0.0000000000000000E+00    0.0000000000000000E+00    0.0000000000000000E+00    0.0000000000000000E+00
 -0.5586   0.0221    0.5399587732868533E-01    0.0000000000000000E+00    0.0000000000000000E+00    0.3073716108880114E+00   -0.9381972757204492E+01    0.0000000000000000E+00    0.0000000000000000E+00    0.0000000000000000E+00    0.0000000000000000E+00    0.0000000000000000E+00
 -0.5720  -0.0023    0.6030025034266964E-01    0.0000000000000000E+00    0.0000000000000000E+00    0.3222086493723272E+00   -0.8463924102312982E+01    0.0000000000000000E+00    0.0000000000000000E+00    0.0000000000000000E+00    0.0000000000000000E+00    0.0000000000000000E+00
 -0.5848  -0.0256    0.6480316330339855E-01    0.0000000000000000E+00    0.0000000000000000E+00    0.3376610799830965E+00   -0.7352733145690999E+01    0.0000000000000000E+00    0.0000000000000000E+00    0.0000000000000000E+00    0.0000000000000000E+00    0.0000000000000000E+00
 -0.5970  -0.0477    0.6713948851731065E-01    0.0000000000000000E+00    0.0000000000000000E+00    0.3535913650616448E+00   -0.6129765776518782E+01    0.0000000000000000E+00    0.0000000000000000E+00    0.0000000000000000E+00    0.0000000000000000E+00    0.0000000000000000E+00
 -0.6085  -0.0686    0.6721922256947251E-01    0.0000000000000000E+00    0.0000000000000000E+00    0.3698382649812421E+00   -0.4886673334174755E+01    0.0000000000000000E+00    0.0000000000000000E+00    0.0000000000000000E+00    0.0000000000000000E+00    0.0000000000000000E+00
 -0.6193  -0.0882    0.6522278867802743E-01    0.0000000000000000E+00    0.0000000000000000E+00    0.3862150582013133E+00   -0.3709594057682811E+01    0.0000000000000000E+00    0.0000000000000000E+00    0.0000000000000000E+00    0.0000000000000000E+00    0.0000000000000000E+00
 -0.6293  -0.1064    0.6153733063308082E-01    0.0000000000000000E+00    0.0000000000000000E+00    0.4025048069964138E+00   -0.2665646478669801E+01    0.0000000000000000E+00    0.0000000000000000E+00    0.0000000000000000E+00    0.0000000000000000E+00    0.0000000000000000E+00
 -0.6385  -0.1231    0.5666155498226506E-01    0.0000000000000000E+00    0.0000000000000000E+00    0.4184546805541866E+00   -0.1795833004517394E+01    0.0000000000000000E+00    0.0000000000000000E+00    0.0000000000000000E+00    0.0000000000000000E+00    0.0000000000000000E+00
 -0.6468  -0.1383    0.5111365236660762E-01    0.0000000000000000E+00    0.0000000000000000E+00    0.4337742348050466E+00   -0.1115222959413662E+01    0.0000000000000000E+00    0.0000000000000000E+00    0.0000000000000000E+00    0.0000000000000000E+00    0.0000000000000000E+00
 -0.6543  -0.1518    0.4536652039547807E-01    0.0000000000000000E+00    0.0000000000000000E+00    0.4481435575099282E+00   -0.6184545308146590E+00    0.0000000000000000E+00    0.0000000000000000E+00    0.0000000000000000E+00    0.0000000000000000E+00    0.0000000000000000E+00
 -0.6608  -0.1636    0.3981736683440915E-01    0.0000000000000000E+00    0.0000000000000000E+00    0.4612343200370689E+00   -0.2867610657242494E+00    0.0000000000000000E+00    0.0000000000000000E+00    0.0000000000000000E+00    0.0000000000000000E+00    0.0000000000000000E+00
 -0.6663  -0.1737    0.3478283174267409E-01    0.0000000000000000E+00    0.0000000000000000E+00    0.4727403653209659E+00   -0.9344071263355259E-01    0.0000000000000000E+00    0.0000000000000000E+00    0.0000000000000000E+00    0.0000000000000000E+00    0.0000000000000000E+00
 -0.6709  -0.1820    0.3050377489229411E-01    0.0000000000000000E+00    0.0000000000000000E+00    0.4824080036739093E+00   -0.5900846530809176E-02    0.0000000000000000E+00    0.0000000000000000E+00    0.0000000000000000E+00    0.0000000000000000E+00    0.0000000000000000E+00
 -0.6745  -0.1885    0.2714361659516050E-01    0.0000000000000000E+00    0.0000000000000000E+00    0.4900544002053041E+00    0.1367209814718989E-01    0.0000000000000000E+00    0.0000000000000000E+00    0.0000000000000000E+00    0.0000000000000000E+00    0.0000000000000000E+00
 -0.6771  -0.1932    0.2477699333140698E-01    0.0000000000000000E+00    0.0000000000000000E+00    0.4955675257135522E+00    0.5675450903419292E-02    0.0000000000000000E+00    0.0000000000000000E+00    0.0000000000000000E+00    0.0000000000000000E+00    0.0000000000000000E+00
 -0.6786  -0.1960    0.2338057307794767E-01    0.0000000000000000E+00    0.0000000000000000E+00    0.4988904426793409E+00   -0.4172338558577373E-04    0.0000000000000000E+00    0.0000000000000000E+00    0.0000000000000000E+00    0.0000000000000000E+00    0.0000000000000000E+00
 -0.6791  -0.1969    0.2291581565581498E-01    0.0000000000000000E+00    0.0000000000000000E+00    0.5000000000000000E+00    0.0000000000000000E+00    0.0000000000000000E+00    0.0000000000000000E+00    0.0000000000000000E+00    0.0000000000000000E+00    0.0000000000000000E+00
 -0.1960   0.6786    0.2462544183786614E-01    0.0000000000000000E+00    0.0000000000000000E+00   -0.5000000000000000E+00    0.5067220410921293E-03    0.0000000000000000E+00    0.0000000000000000E+00    0.0000000000000000E+00    0.0000000000000000E+00    0.0000000000000000E+00
 -0.1965   0.6777    0.2509071590756739E-01   -0.2844684176920367E-07    0.2876694801902610E-07   -0.4949298895478460E+00   -0.7090597623772145E-03    0.3667639959624910E-10   -0.1608828532472396E-08   -0.2368823453363644E-12   -0.2373565753666096E-12    0.8257559133001413E-11
 -0.1981   0.6749    0.2643447747685033E-01    0.7180511253950595E-05   -0.2447892047710312E-05   -0.4797444390071769E+00   -0.9151563113352083E-02   -0.3462810323733881E-08   -0.1610590550683855E-08   -0.4723296406772270E-12   -0.3157144684573510E-12    0.3164218539963848E-10
 -0.2006   0.6702    0.2857420448793292E-01    0.5033741099098973E-04   -0.6108692608505418E-05   -0.4545379036878771E+00   -0.4780879509455797E-01   -0.2691168655713165E-07   -0.1613106093145689E-08   -0.3777553356926200E-12   -0.3252745295334591E-12    0.7115175983118949E-10
 -0.2042   0.6637    0.3146991170958642E-01    0.1537055719376040E-03   -0.8595172466456045E-05   -0.4195380785429158E+00   -0.1400349096331641E+00   -0.8297333566579714E-07   -0.1616153825351185E-08    0.2704989010560155E-12   -0.3929287450965546E-12    0.1251817573211245E-09
 -0.2088   0.6554    0.3506557792289192E-01    0.3145785886349580E-03   -0.9389141888739184E-05   -0.3752279482511535E+00   -0.2850807012067694E+00   -0.1700824449474405E-06   -0.1618996266911088E-08    0.1708702623837155E-11   -0.4082290061546701E-12    0.1916120768996610E-09
 -0.2144   0.6453    0.3921560824496029E-01    0.5069809417636368E-03   -0.8416242749692045E-05   -0.3225236520292551E+00   -0.4602759825355375E+00   -0.2739018384247690E-06   -0.1620252803452571E-08    0.3894412570204508E-11   -0.4286015986565417E-12    0.2641841190254013E-09
 -0.2209   0.6334    0.4365727424874180E-01    0.6928238846508095E-03   -0.6298021704147232E-05   -0.2629631628005665E+00   -0.6310875076352055E+00   -0.3739164770488898E-06   -0.1618744306999820E-08    0.6539532804161752E-11   -0.4016301180520543E-12    0.3326028688577232E-09
 -0.2283   0.6199    0.4801526946759555E-01    0.8353129551802620E-03   -0.3636348288161825E-05   -0.1988111103071437E+00   -0.7637620297649874E+00   -0.4502598065628285E-06   -0.1613541954562092E-08    0.9246728382983349E-11   -0.3797968883834102E-12    0.3798781705866006E-09
 -0.2366   0.6048    0.5184324549155579E-01    0.9124798155920629E-03   -0.1244892588297234E-05   -0.1329771454117725E+00   -0.8378339978337114E+00   -0.4911955513461408E-06   -0.1603997204155383E-08    0.1156828799420140E-10   -0.3476784832256996E-12    0.3843891732691063E-09
 -0.2458   0.5881    0.5469457392320585E-01    0.9276494735678244E-03    0.2507679462192763E-06   -0.6870969603298088E-01   -0.8559370751441745E+00   -0.4985677212648510E-06   -0.1589498462321523E-08    0.1313148895176752E-10   -0.3303105944145457E-12    0.3226220957053272E-09
 -0.2558   0.5699    0.5621229561940787E-01    0.9117148988778619E-03    0.4336986700975764E-06   -0.9137706883511286E-02   -0.8459770485341240E+00   -0.4891064320405218E-06   -0.1569316153914556E-08    0.1368179528005165E-10   -0.2750681626917384E-12    0.1737295030057595E-09
 -0.2666   0.5503    0.5620544285779347E-01    0.9137003036339653E-03   -0.6158388857193942E-06    0.4319198497634456E-01   -0.8526666049449727E+00   -0.4892487265032856E-06   -0.1542427148460909E-08    0.1318135704753143E-10   -0.2360060931405616E-12   -0.7703745974474430E-10
 -0.2781   0.5294    0.5467754208809948E-01    0.9831650902216433E-03   -0.2510285219475236E-05    0.8665199687920352E-01   -0.9214689391711917E+00   -0.5256839481102314E-06   -0.1507043043309786E-08    0.1179465032585814E-10   -0.1636121793602285E-12   -0.4354027555164564E-09
 -0.2903   0.5072    0.5179228367058027E-01    0.1154917678112098E-02   -0.4716500894996344E-05    0.1206921319088710E+00   -0.1084568463682628E+01   -0.6171081935454504E-06   -0.1460563652661007E-08    0.9775596998551350E-11   -0.1278248340508270E-12   -0.8951074534357950E-09
 -0.3032   0.4839    0.4780412368364542E-01    0.1445010151251260E-02   -0.6900248799447838E-05    0.1458157276997974E+00   -0.1357005323736727E+01   -0.7721032822518627E-06   -0.1399929535142452E-08    0.7322024930811466E-11   -0.7034650639781148E-13   -0.1434440011216509E-08
 -0.3166   0.4596    0.4299700259258438E-01    0.1856795314283801E-02   -0.8918098353340791E-05    0.1633821003948569E+00   -0.1742051116886195E+01   -0.9924438200227184E-06   -0.1322521668567500E-08    0.4464692504591028E-11    0.5302702721365904E-13   -0.2015535838922888E-08
 -0.3305   0.4343    0.3765595055655262E-01    0.2388484848269656E-02   -0.1077836527575655E-04    0.1752591197417200E+00   -0.2238052158172391E+01   -0.1277161870155741E-05   -0.1227324308156197E-08    0.1115225967129874E-11    0.1023625628704394E-12   -0.2588181988172344E-08
 -0.3448   0.4082    0.3206451509043399E-01    0.3035923481735123E-02   -0.1246193203461320E-04    0.1834057010674511E+00   -0.2840996961814108E+01   -0.1624067322017146E-05   -0.1115457573530598E-08   -0.2880983646091906E-11    0.1988478826042694E-12   -0.3101420249090880E-08
 -0.3596   0.3814    0.2651202215276698E-01    0.3791005343623803E-02   -0.1392486308891127E-04    0.1895141843386288E+00   -0.3543111240175535E+01   -0.2028848684771488E-05   -0.9903703100666572E-09   -0.7640086480131814E-11    0.3031186412982834E-12   -0.3516127754406295E-08
 -0.3747   0.3539    0.2129884968120706E-01    0.4639108327375888E-02   -0.1506663770887770E-04    0.1948211423761226E+00   -0.4330543615533956E+01   -0.2483728409673210E-05   -0.8571940345036833E-09   -0.1326733514717127E-10    0.3855804564523169E-12   -0.3813235434444590E-08
 -0.3901   0.3260    0.1673493941180476E-01    0.5557894247147512E-02   -0.1580143799126937E-04    0.2001042425805203E+00   -0.5182311489477863E+01   -0.2976757841607157E-05   -0.7224307124742424E-09   -0.1981273478612877E-10    0.4777428452840127E-12   -0.3993657473732454E-08
 -0.4056   0.2978    0.1312878178129943E-01    0.6517904589383322E-02   -0.1604441917622233E-04    0.2057952976283797E+00   -0.6070889170307463E+01   -0.3492185655371859E-05   -0.5931246258028544E-09   -0.2725497605382543E-10    0.5492967192211040E-12   -0.4072125824039485E-08
 -0.4213   0.2692    0.1076836856637676E-01    0.7484375498100397E-02   -0.1575224830544836E-04    0.2121170744788557E+00   -0.6963927083350016E+01   -0.4011363664882662E-05   -0.4763257219209116E-09   -0.3541478221791294E-10    0.6029621246739225E-12   -0.4068843109661380E-08
 -0.4371   0.2406    0.9897542220095021E-02    0.8419261471273080E-02   -0.1488467729895911E-04    0.2191866868711019E+00   -0.7826127964584281E+01   -0.4513899210682955E-05   -0.3787287740364409E-09   -0.4394395958229325E-10    0.6258327189812007E-12   -0.4003476098378422E-08
 -0.4529   0.2119    0.1069204386571853E-01    0.9282649123069753E-02   -0.1341577649595233E-04    0.2270738943569625E+00   -0.8620573759116651E+01   -0.4978338584033424E-05   -0.3058769210140255E-09   -0.5228770194598553E-10    0.6410219577368537E-12   -0.3892281207409920E-08
 -0.4686   0.1834    0.1323663003595035E-01    0.1003325148131377E-01   -0.1129363171124940E-04    0.2358267089007335E+00   -0.9309175210271878E+01   -0.5382511908588276E-05   -0.2616407784872266E-09   -0.5972650152230585E-10    0.5952807691222972E-12   -0.3748138082890207E-08
 -0.4841   0.1551    0.1750322826474814E-01    0.1062844600809678E-01   -0.8461315178936197E-05    0.2454795572469897E+00   -0.9852744636372151E+01   -0.5703462203343061E-05   -0.2473735452590553E-09   -0.6538258823240994E-10    0.5263983693382102E-12   -0.3580721565608902E-08
 -0.4995   0.1272    0.2332971809038522E-01    0.1102485248859397E-01   -0.4852182278854818E-05    0.2560537658425565E+00   -0.1021153865926980E+02   -0.5917845289821010E-05   -0.2612515221517286E-09   -0.6843015043500600E-10    0.3899623679526343E-12   -0.3396906712513359E-08
 -0.5146   0.0998    0.3040267451919746E-01    0.1118069018770454E-01   -0.4479209629030217E-06    0.2675550229132409E+00   -0.1034748370887957E+02   -0.6003088475160915E-05   -0.2978714049505990E-09   -0.6809702801646722E-10    0.2302860593189626E-12   -0.3202028192941797E-08
 -0.5294   0.0729    0.3825181708036858E-01    0.1106076945498818E-01    0.4686421894925852E-05    0.2799698361450172E+00   -0.1022875219490796E+02   -0.5940186008994201E-05   -0.3484552698468368E-09   -0.6391409623773825E-10    0.7260164691658133E-13   -0.2999839704767582E-08
 -0.5437   0.0468    0.4626830458948920E-01    0.1064406528110265E-01    0.1033324613634262E-04    0.2932620770396976E+00   -0.9836718650870305E+01   -0.5717659020397957E-05   -0.4018922382387213E-09   -0.5594225083171978E-10   -0.1135827543130574E-12   -0.2792602163403934E-08
 -0.5576   0.0216    0.5375743899425917E-01    0.9932315777840291E-02    0.1611195944073787E-04    0.3073704399487144E+00   -0.9173725787563427E+01   -0.5336336143044027E-05   -0.4466679109915717E-09   -0.4481270909906243E-10   -0.2696731726814505E-12   -0.2581973445811570E-08
 -0.5710  -0.0028    0.6002763490730911E-01    0.8956681083873701E-02    0.2149249631195230E-04    0.3222074035513615E+00   -0.8269087901449980E+01   -0.4812818959914697E-05   -0.4732906844218121E-09   -0.3173833418301797E-10   -0.4166805789296291E-12   -0.2369041001565320E-08
 -0.5839  -0.0261    0.6450086631877305E-01    0.7778920206168206E-02    0.2589968572116153E-04    0.3376597608673199E+00   -0.7179975343560290E+01   -0.4180307419423658E-05   -0.4766276609502462E-09   -0.1834987717330705E-10   -0.5446337825176784E-12   -0.2154417840308231E-08
 -0.5961  -0.0482    0.6681451414860033E-01    0.6484864516232182E-02    0.2883783556040066E-04    0.3535899709538433E+00   -0.5985388650436081E+01   -0.3484920717523013E-05   -0.4570301984085923E-09   -0.6316502876302366E-11   -0.5912492717641271E-12   -0.1938616343843957E-08
 -0.6076  -0.0692    0.6688001503320543E-01    0.5170890207345046E-02    0.3002896243825151E-04    0.3698367921369475E+00   -0.4773708461788136E+01   -0.2778613502251019E-05   -0.4197647021642048E-09    0.3062106124218644E-11   -0.5971889649458717E-12   -0.1721980221608410E-08
 -0.6184  -0.0888    0.6487791550228822E-01    0.3927412885902797E-02    0.2946911526888943E-04    0.3862135057308901E+00   -0.3627731122675254E+01   -0.2110037273410014E-05   -0.3729287226250655E-09    0.9119677235602808E-11   -0.5909994715835865E-12   -0.1506113178617596E-08
 -0.6284  -0.1069    0.6119423142429111E-01    0.2824830972850538E-02    0.2740659873340441E-04    0.4025031853777728E+00   -0.2611830495087637E+01   -0.1517208518843894E-05   -0.3248161531410609E-09    0.1191230447616931E-10   -0.5529049440511358E-12   -0.1292351239912115E-08
 -0.6376  -0.1236    0.5632589448111119E-01    0.1906147882555884E-02    0.2423338007971194E-04    0.4184530213463433E+00   -0.1765372817654872E+01   -0.1023216425295134E-05   -0.2819627101247058E-09    0.1204354671546781E-10   -0.5055400542630650E-12   -0.1083450629560390E-08
 -0.6459  -0.1388    0.5078920273106031E-01    0.1187182596492137E-02    0.2035799268957312E-04    0.4337725967795770E+00   -0.1102805269294180E+01   -0.6366882064634928E-06   -0.2480259470027946E-09    0.1040014602216033E-10   -0.4615752224879088E-12   -0.8821722779356334E-09
 -0.6533  -0.1523    0.4505565312888296E-01    0.6622710534176218E-03    0.1610641141722029E-04    0.4481420238034406E+00   -0.6189563546427255E+00   -0.3544541959477778E-06   -0.2240430757582956E-09    0.7906454354070225E-11   -0.4463790448383520E-12   -0.6926767215365004E-09
 -0.6598  -0.1641    0.3952149777539155E-01    0.3115619090233268E-03    0.1169344430841241E-04    0.4612329834909079E+00   -0.2954472691513869E+00   -0.1659987129120761E-06   -0.2090458882386681E-09    0.5316021928214454E-11   -0.4518121987651114E-12   -0.5190713310565531E-09
 -0.6654  -0.1742    0.3450269248543691E-01    0.1066298614063106E-03    0.7298780457933365E-05    0.4727393046338046E+00   -0.1059577682474400E+00   -0.5588750369171411E-07   -0.2010353532949649E-09    0.3159979222733256E-11   -0.4730105196415479E-12   -0.3654686232465454E-09
 -0.6700  -0.1825    0.3023862606177803E-01    0.1268200943900491E-04    0.3232669561670707E-05    0.4824072588344870E+00   -0.1794944735963976E-01   -0.5722894056752071E-08   -0.1974155561246249E-09    0.1709774682945309E-11   -0.4998484265383851E-12   -0.2363544178082821E-09
 -0.6736  -0.1890    0.2688968576034634E-01   -0.1060194081197321E-04    0.1023927642269963E-06    0.4900539583535495E+00    0.5904512613320229E-02    0.6451588178389217E-08   -0.1957835662797121E-09    0.9854478344450968E-12   -0.5185253268424894E-12   -0.1335628257298493E-09
 -0.6761  -0.1937    0.2452520884686298E-01   -0.5155491732287182E-05   -0.1211581172811579E-05    0.4955673250299693E+00    0.4010325387506686E-02    0.2839007926112479E-08   -0.1938359240911264E-09    0.7382254529897381E-12   -0.5852479958989854E-12   -0.5948478645420585E-10
 -0.6777  -0.1965    0.2312641682895233E-01   -0.2232577801624216E-06   -0.2231793635565708E-06    0.4988903922552234E+00    0.7420038212066525E-03    0.1901538853858951E-09   -0.1912756502665813E-09    0.4106195635247833E-12   -0.4176221000962155E-12   -0.1470946265182474E-10
 -0.6782  -0.1975    0.2266137318394688E-01    0.0000000000000000E+00    0.0000000000000000E+00    0.5000000000000000E+00   -0.4151346224939622E-04    0.0000000000000000E+00    0.0000000000000000E+00    0.0000000000000000E+00    0.0000000000000000E+00    0.0000000000000000E+00
 -0.1932   0.6771    0.2542660411925182E-01    0.0000000000000000E+00    0.0000000000000000E+00   -0.5000000000000000E+00   -0.4802142697539071E-02    0.0000000000000000E+00    0.0000000000000000E+00    0.0000000000000000E+00    0.0000000000000000E+00    0.0000000000000000E+00
 -0.1937   0.6761    0.2588152727332168E-01    0.2446215907458996E-05   -0.7177312038371034E-05   -0.4949275439748260E+00   -0.9150486568727830E-02   -0.3460650106201151E-08   -0.1610186308939610E-08   -0.3336783974128288E-12   -0.3961449224210156E-12    0.7993143690335214E-11
 -0.1953   0.6733    0.2721351044309864E-01    0.3980613487936279E-04   -0.3980952198709472E-04   -0.4797349421645009E+00   -0.2152332517843325E-01   -0.7678816160535280E-07   -0.1610985369410178E-08   -0.9606639485640334E-12   -0.1063368143539023E-11    0.3164416818857152E-10
 -0.1978   0.6686    0.2935013102735872E-01    0.1991089182655373E-03   -0.8950120268532518E-04   -0.4545157571382242E+00   -0.5194511845588857E-01   -0.4294805376698852E-06   -0.1612872092826567E-08   -0.7060992415763856E-12   -0.1653323311590071E-11    0.7101956002453225E-10
 -0.2014   0.6621    0.3222615115071344E-01    0.5671944732202805E-03   -0.1280016215978651E-03   -0.4194964889345775E+00   -0.1214702560906138E+00   -0.1257402973129377E-05   -0.1615508990471248E-08    0.1651890429998915E-11   -0.2233609130986025E-11    0.1252648401672829E-09
 -0.2060   0.6538    0.3576775588620648E-01    0.1150878353269984E-02   -0.1413884596055880E-03   -0.3751592898298879E+00   -0.2377390735109179E+00   -0.2560520089844310E-05   -0.1618049375040620E-08    0.6902062255065289E-11   -0.2669170440228186E-11    0.1913978975309760E-09
 -0.2115   0.6437    0.3982856965338410E-01    0.1865746814341068E-02   -0.1292107836487114E-03   -0.3224213241851763E+00   -0.3870798148882449E+00   -0.4139856511657411E-05   -0.1619242628869699E-08    0.1496654189470092E-10   -0.2869184057008312E-11    0.2639638646551035E-09
 -0.2181   0.6319    0.4415301048531482E-01    0.2574127146633450E-02   -0.9836050040392534E-04   -0.2628242166131633E+00   -0.5415774012855182E+00   -0.5687169861649463E-05   -0.1617878227222480E-08    0.2483011019016601E-10   -0.2813201060991588E-11    0.3323540609390108E-09
 -0.2255   0.6184    0.4837841284111503E-01    0.3137218701768036E-02   -0.5895632404487095E-04   -0.1986384135972154E+00   -0.6712366506138265E+00   -0.6897619350987477E-05   -0.1612967901604145E-08    0.3497947764774523E-10   -0.2544499333456685E-11    0.3794659308997694E-09