 title="result"
 variables="x","y","P","u","v","t","omega","psi","RES1","RES2","RES3","RES4"
zone,j= 49,i= 49,f=point
 -0.3210   0.6300    0.2534134501821303E-01    0.0000000000000000E+00    0.0000000000000000E+00   -0.5000000000000000E+00    0.0000000000000000E+00    0.0000000000000000E+00    0.0000000000000000E+00    0.0000000000000000E+00    0.0000000000000000E+00    0.0000000000000000E+00
 -0.3214   0.6290    0.2584716180743462E-01    0.0000000000000000E+00    0.0000000000000000E+00   -0.4954190860079105E+00    0.1299608154811617E-03    0.0000000000000000E+00    0.0000000000000000E+00    0.0000000000000000E+00    0.0000000000000000E+00    0.0000000000000000E+00
 -0.3223   0.6260    0.2732681924148033E-01    0.0000000000000000E+00    0.0000000000000000E+00   -0.4816983758519770E+00   -0.4280537826781394E-02    0.0000000000000000E+00    0.0000000000000000E+00    0.0000000000000000E+00    0.0000000000000000E+00    0.0000000000000000E+00
 -0.3240   0.6209    0.2971055403994101E-01    0.0000000000000000E+00    0.0000000000000000E+00   -0.4589185764424543E+00   -0.2594203515919145E-01    0.0000000000000000E+00    0.0000000000000000E+00    0.0000000000000000E+00    0.0000000000000000E+00    0.0000000000000000E+00
 -0.3263   0.6138    0.3291227201270943E-01    0.0000000000000000E+00    0.0000000000000000E+00   -0.4272643778095776E+00   -0.6940890768553898E-01    0.0000000000000000E+00    0.0000000000000000E+00    0.0000000000000000E+00    0.0000000000000000E+00    0.0000000000000000E+00
 -0.3292   0.6048    0.3678201130970985E-01    0.0000000000000000E+00    0.0000000000000000E+00   -0.3871033339063401E+00   -0.1282276541296042E+00    0.0000000000000000E+00    0.0000000000000000E+00    0.0000000000000000E+00    0.0000000000000000E+00    0.0000000000000000E+00
 -0.3328   0.5938    0.4108818755949076E-01    0.0000000000000000E+00    0.0000000000000000E+00   -0.3390954962584271E+00   -0.1908314940273503E+00    0.0000000000000000E+00    0.0000000000000000E+00    0.0000000000000000E+00    0.0000000000000000E+00    0.0000000000000000E+00
 -0.3370   0.5810    0.4552175811442520E-01    0.0000000000000000E+00    0.0000000000000000E+00   -0.2843168978082949E+00   -0.2450494538843331E+00    0.0000000000000000E+00    0.0000000000000000E+00    0.0000000000000000E+00    0.0000000000000000E+00    0.0000000000000000E+00
 -0.3417   0.5663    0.4971232031494298E-01    0.0000000000000000E+00    0.0000000000000000E+00   -0.2243626678049292E+00   -0.2825897802649502E+00    0.0000000000000000E+00    0.0000000000000000E+00    0.0000000000000000E+00    0.0000000000000000E+00    0.0000000000000000E+00
 -0.3471   0.5499    0.5326095374460071E-01    0.0000000000000000E+00    0.0000000000000000E+00   -0.1613831735872545E+00   -0.3034560401748002E+00    0.0000000000000000E+00    0.0000000000000000E+00    0.0000000000000000E+00    0.0000000000000000E+00    0.0000000000000000E+00
 -0.3529   0.5318    0.5578899689893319E-01    0.0000000000000000E+00    0.0000000000000000E+00   -0.9800915286388115E-01   -0.3194591453275291E+00    0.0000000000000000E+00    0.0000000000000000E+00    0.0000000000000000E+00    0.0000000000000000E+00    0.0000000000000000E+00
 -0.3594   0.5120    0.5699826229663384E-01    0.0000000000000000E+00    0.0000000000000000E+00   -0.3714344422026156E-01   -0.3540961675537546E+00    0.0000000000000000E+00    0.0000000000000000E+00    0.0000000000000000E+00    0.0000000000000000E+00    0.0000000000000000E+00
 -0.3663   0.4908    0.5672309708240510E-01    0.0000000000000000E+00    0.0000000000000000E+00    0.1837080007932469E-01   -0.4371058618090380E+00    0.0000000000000000E+00    0.0000000000000000E+00    0.0000000000000000E+00    0.0000000000000000E+00    0.0000000000000000E+00
 -0.3737   0.4680    0.5495249828248920E-01    0.0000000000000000E+00    0.0000000000000000E+00    0.6616325232844589E-01   -0.5957846765110175E+00    0.0000000000000000E+00    0.0000000000000000E+00    0.0000000000000000E+00    0.0000000000000000E+00    0.0000000000000000E+00
 -0.3815   0.4440    0.5181281837199778E-01    0.0000000000000000E+00    0.0000000000000000E+00    0.1047523309589822E+00   -0.8485269228186236E+00    0.0000000000000000E+00    0.0000000000000000E+00    0.0000000000000000E+00    0.0000000000000000E+00    0.0000000000000000E+00
 -0.3897   0.4187    0.4752595142984416E-01    0.0000000000000000E+00    0.0000000000000000E+00    0.1338398466719616E+00   -0.1204482340314489E+01    0.0000000000000000E+00    0.0000000000000000E+00    0.0000000000000000E+00    0.0000000000000000E+00    0.0000000000000000E+00
 -0.3983   0.3923    0.4236746688645002E-01    0.0000000000000000E+00    0.0000000000000000E+00    0.1543411036979946E+00   -0.1667554446228009E+01    0.0000000000000000E+00    0.0000000000000000E+00    0.0000000000000000E+00    0.0000000000000000E+00    0.0000000000000000E+00
 -0.4072   0.3648    0.3664010909666250E-01    0.0000000000000000E+00    0.0000000000000000E+00    0.1680802958860255E+00   -0.2239571636051198E+01    0.0000000000000000E+00    0.0000000000000000E+00    0.0000000000000000E+00    0.0000000000000000E+00    0.0000000000000000E+00
 -0.4164   0.3365    0.3066243811808248E-01    0.0000000000000000E+00    0.0000000000000000E+00    0.1772473683523722E+00   -0.2919682085307254E+01    0.0000000000000000E+00    0.0000000000000000E+00    0.0000000000000000E+00    0.0000000000000000E+00    0.0000000000000000E+00
 -0.4259   0.3074    0.2476635114099826E-01    0.0000000000000000E+00    0.0000000000000000E+00    0.1838524735079900E+00   -0.3701190382400979E+01    0.0000000000000000E+00    0.0000000000000000E+00    0.0000000000000000E+00    0.0000000000000000E+00    0.0000000000000000E+00
 -0.4355   0.2776    0.1929597725628363E-01    0.0000000000000000E+00    0.0000000000000000E+00    0.1893973448947630E+00   -0.4568600667276207E+01    0.0000000000000000E+00    0.0000000000000000E+00    0.0000000000000000E+00    0.0000000000000000E+00    0.0000000000000000E+00
 -0.4454   0.2473    0.1460096126366079E-01    0.0000000000000000E+00    0.0000000000000000E+00    0.1948239033562551E+00   -0.5496636327061355E+01    0.0000000000000000E+00    0.0000000000000000E+00    0.0000000000000000E+00    0.0000000000000000E+00    0.0000000000000000E+00
 -0.4554   0.2166    0.1101941652535836E-01    0.0000000000000000E+00    0.0000000000000000E+00    0.2006441202638142E+00   -0.6451460347242867E+01    0.0000000000000000E+00    0.0000000000000000E+00    0.0000000000000000E+00    0.0000000000000000E+00    0.0000000000000000E+00
 -0.4654   0.1856    0.8851618215445178E-02    0.0000000000000000E+00    0.0000000000000000E+00    0.2071126127908356E+00   -0.7393306725021120E+01    0.0000000000000000E+00    0.0000000000000000E+00    0.0000000000000000E+00    0.0000000000000000E+00    0.0000000000000000E+00
 -0.4755   0.1545    0.8329534987895855E-02    0.0000000000000000E+00    0.0000000000000000E+00    0.2143571716910173E+00   -0.8279345186211870E+01    0.0000000000000000E+00    0.0000000000000000E+00    0.0000000000000000E+00    0.0000000000000000E+00    0.0000000000000000E+00
 -0.4856   0.1234    0.9587754818487689E-02    0.0000000000000000E+00    0.0000000000000000E+00    0.2224505853267178E+00   -0.9065890868333012E+01    0.0000000000000000E+00    0.0000000000000000E+00    0.0000000000000000E+00    0.0000000000000000E+00    0.0000000000000000E+00
 -0.4957   0.0924    0.1263864693463476E-01    0.0000000000000000E+00    0.0000000000000000E+00    0.2314410745392750E+00   -0.9709758996929882E+01    0.0000000000000000E+00    0.0000000000000000E+00    0.0000000000000000E+00    0.0000000000000000E+00    0.0000000000000000E+00
 -0.5057   0.0617    0.1735274850724374E-01    0.0000000000000000E+00    0.0000000000000000E+00    0.2413616017238767E+00   -0.1016932996043185E+02    0.0000000000000000E+00    0.0000000000000000E+00    0.0000000000000000E+00    0.0000000000000000E+00    0.0000000000000000E+00
 -0.5155   0.0314    0.2344584304799615E-01    0.0000000000000000E+00    0.0000000000000000E+00    0.2522304307735426E+00   -0.1040631192886063E+02    0.0000000000000000E+00    0.0000000000000000E+00    0.0000000000000000E+00    0.0000000000000000E+00    0.0000000000000000E+00
 -0.5252   0.0017    0.3047742374578630E-01    0.0000000000000000E+00    0.0000000000000000E+00    0.2640485781701872E+00   -0.1038912897516005E+02    0.0000000000000000E+00    0.0000000000000000E+00    0.0000000000000000E+00    0.0000000000000000E+00    0.0000000000000000E+00
 -0.5347  -0.0275    0.3786854239894256E-01    0.0000000000000000E+00    0.0000000000000000E+00    0.2767964972608876E+00   -0.1009821225566342E+02    0.0000000000000000E+00    0.0000000000000000E+00    0.0000000000000000E+00    0.0000000000000000E+00    0.0000000000000000E+00
 -0.5439  -0.0558    0.4494748681191862E-01    0.0000000000000000E+00    0.0000000000000000E+00    0.2904311665681375E+00   -0.9532408292084270E+01    0.0000000000000000E+00    0.0000000000000000E+00    0.0000000000000000E+00    0.0000000000000000E+00    0.0000000000000000E+00
 -0.5528  -0.0833    0.5102609784653563E-01    0.0000000000000000E+00    0.0000000000000000E+00    0.3048843331378301E+00   -0.8714508038452548E+01    0.0000000000000000E+00    0.0000000000000000E+00    0.0000000000000000E+00    0.0000000000000000E+00    0.0000000000000000E+00
 -0.5614  -0.1097    0.5549779968542230E-01    0.0000000000000000E+00    0.0000000000000000E+00    0.3200622618168654E+00   -0.7693237255179452E+01    0.0000000000000000E+00    0.0000000000000000E+00    0.0000000000000000E+00    0.0000000000000000E+00    0.0000000000000000E+00
 -0.5696  -0.1350    0.5793495465432449E-01    0.0000000000000000E+00    0.0000000000000000E+00    0.3358467057016564E+00   -0.6539532149963854E+01    0.0000000000000000E+00    0.0000000000000000E+00    0.0000000000000000E+00    0.0000000000000000E+00    0.0000000000000000E+00
 -0.5774  -0.1590    0.5815634097711043E-01    0.0000000000000000E+00    0.0000000000000000E+00    0.3520960345738236E+00   -0.5336867419167695E+01    0.0000000000000000E+00    0.0000000000000000E+00    0.0000000000000000E+00    0.0000000000000000E+00    0.0000000000000000E+00
 -0.5848  -0.1817    0.5624231100095057E-01    0.0000000000000000E+00    0.0000000000000000E+00    0.3686449358980612E+00   -0.4167951682271756E+01    0.0000000000000000E+00    0.0000000000000000E+00    0.0000000000000000E+00    0.0000000000000000E+00    0.0000000000000000E+00
 -0.5917  -0.2030    0.5249417358008783E-01    0.0000000000000000E+00    0.0000000000000000E+00    0.3853014220626814E+00   -0.3101921470576535E+01    0.0000000000000000E+00    0.0000000000000000E+00    0.0000000000000000E+00    0.0000000000000000E+00    0.0000000000000000E+00
 -0.5981  -0.2228    0.4735554633034959E-01    0.0000000000000000E+00    0.0000000000000000E+00    0.4018414564573411E+00   -0.2185915958930166E+01    0.0000000000000000E+00    0.0000000000000000E+00    0.0000000000000000E+00    0.0000000000000000E+00    0.0000000000000000E+00
 -0.6040  -0.2409    0.4132453722646240E-01    0.0000000000000000E+00    0.0000000000000000E+00    0.4180040661883289E+00   -0.1442923350174723E+01    0.0000000000000000E+00    0.0000000000000000E+00    0.0000000000000000E+00    0.0000000000000000E+00    0.0000000000000000E+00
 -0.6093  -0.2573    0.3488242582668701E-01    0.0000000000000000E+00    0.0000000000000000E+00    0.4334920002902016E+00   -0.8750690710379656E+00    0.0000000000000000E+00    0.0000000000000000E+00    0.0000000000000000E+00    0.0000000000000000E+00    0.0000000000000000E+00
 -0.6141  -0.2720    0.2845135858762353E-01    0.0000000000000000E+00    0.0000000000000000E+00    0.4479828546482063E+00   -0.4698227107189535E+00    0.0000000000000000E+00    0.0000000000000000E+00    0.0000000000000000E+00    0.0000000000000000E+00    0.0000000000000000E+00
 -0.6183  -0.2848    0.2237969785059766E-01    0.0000000000000000E+00    0.0000000000000000E+00    0.4611519497299708E+00   -0.2060323012268500E+00    0.0000000000000000E+00    0.0000000000000000E+00    0.0000000000000000E+00    0.0000000000000000E+00    0.0000000000000000E+00
 -0.6218  -0.2958    0.1694417834853719E-01    0.0000000000000000E+00    0.0000000000000000E+00    0.4727022439551269E+00   -0.5779459349208001E-01    0.0000000000000000E+00    0.0000000000000000E+00    0.0000000000000000E+00    0.0000000000000000E+00    0.0000000000000000E+00
 -0.6248  -0.3048    0.1235521738746206E-01    0.0000000000000000E+00    0.0000000000000000E+00    0.4823916168474430E+00    0.4569121684575413E-02    0.0000000000000000E+00    0.0000000000000000E+00    0.0000000000000000E+00    0.0000000000000000E+00    0.0000000000000000E+00
 -0.6271  -0.3119    0.8754808179148945E-02    0.0000000000000000E+00    0.0000000000000000E+00    0.4900475846801486E+00    0.1416671723775428E-01    0.0000000000000000E+00    0.0000000000000000E+00    0.0000000000000000E+00    0.0000000000000000E+00    0.0000000000000000E+00
 -0.6287  -0.3170    0.6206729879952356E-02    0.0000000000000000E+00    0.0000000000000000E+00    0.4955649182262569E+00    0.4884809158174973E-02    0.0000000000000000E+00    0.0000000000000000E+00    0.0000000000000000E+00    0.0000000000000000E+00    0.0000000000000000E+00
 -0.6297  -0.3200    0.4692928450377945E-02    0.0000000000000000E+00    0.0000000000000000E+00    0.4988898153635011E+00   -0.8148429492856082E-04    0.0000000000000000E+00    0.0000000000000000E+00    0.0000000000000000E+00    0.0000000000000000E+00    0.0000000000000000E+00
 -0.6300  -0.3210    0.4187397472965475E-02    0.0000000000000000E+00    0.0000000000000000E+00    0.5000000000000000E+00    0.0000000000000000E+00    0.0000000000000000E+00    0.0000000000000000E+00    0.0000000000000000E+00    0.0000000000000000E+00    0.0000000000000000E+00
 -0.3200   0.6297    0.2550767087807245E-01    0.0000000000000000E+00    0.0000000000000000E+00   -0.5000000000000000E+00    0.1299047674076321E-03    0.0000000000000000E+00    0.0000000000000000E+00    0.0000000000000000E+00    0.0000000000000000E+00    0.0000000000000000E+00
 -0.3203   0.6287    0.2601273149579226E-01    0.1181848288162785E-06   -0.1182033501960549E-06   -0.4954189651805775E+00   -0.5840808454982522E-03   -0.7334045851215064E-10    0.1440409831449281E-08   -0.5166039037524106E-13   -0.6332976677791979E-13   -0.6047240399403853E-11
 -0.3213   0.6256    0.2749289640220753E-01    0.5095147594453879E-05   -0.1494001802953982E-05   -0.4816978883809908E+00   -0.5517773607944370E-02   -0.2608206911917213E-08    0.1440123810567823E-08   -0.7006287910948927E-13   -0.1147935912992892E-12   -0.2388168092101739E-10
 -0.3230   0.6206    0.2987614081983840E-01    0.2692987932789324E-04   -0.2854166421867901E-05   -0.4589174541569190E+00   -0.2448414759800022E-01   -0.1460196727335322E-07    0.1440765930171839E-08   -0.9911516052341085E-13   -0.7897328624384414E-13   -0.5310518257778396E-10
 -0.3253   0.6135    0.3307066246061249E-01    0.7118213501396954E-04   -0.3459837761020875E-05   -0.4272623186695987E+00   -0.6369039261204329E-01   -0.3863248923288379E-07    0.1442820452522697E-08   -0.5185903789728386E-12   -0.5466113672802919E-13   -0.9345346371758545E-10
 -0.3282   0.6045    0.3692659723242483E-01    0.1320592578776301E-03   -0.3368588160695000E-05   -0.3871000207100234E+00   -0.1185604389392709E+00   -0.7161823926937443E-07    0.1445653298459693E-08   -0.1661230181193574E-11   -0.8165343401422831E-14   -0.1420720416311916E-09
 -0.3318   0.5935    0.4121388143553919E-01    0.1977441189876108E-03   -0.2730094085811877E-05   -0.3390906399786306E+00   -0.1786709275868691E+00   -0.1069925421585026E-06    0.1448047698242305E-08   -0.3642922768998247E-11   -0.1351523060133530E-13   -0.1942504976315540E-09
 -0.3359   0.5807    0.4562506672463059E-01    0.2555643947442529E-03   -0.1862300638103666E-05   -0.2843102980479817E+00   -0.2324644597242193E+00   -0.1379979177431949E-06    0.1448591573950664E-08   -0.6325148738106634E-11   -0.7703906956813000E-14   -0.2399787521478736E-09
 -0.3407   0.5660    0.4979173096002684E-01    0.2967804971828984E-03   -0.1024805621487309E-05   -0.2243542775992309E+00   -0.2719317663215050E+00   -0.1598657842317530E-06    0.1446085693248070E-08   -0.9381113941220320E-11   -0.2108556385049809E-14   -0.2620901620731253E-09
 -0.3460   0.5496    0.5331714583011971E-01    0.3213200914824153E-03   -0.5403085620899170E-06   -0.1613731488444755E+00   -0.2969114891637860E+00   -0.1726198652410429E-06    0.1439509099377886E-08   -0.1241941965934856E-10   -0.4344094528541120E-13   -0.2379245689354548E-09
 -0.3519   0.5314    0.5582480223689672E-01    0.3414905942510013E-03   -0.6505653034599325E-06   -0.9799786888319556E-01   -0.3185981362028875E+00   -0.1828703553188457E-06    0.1427816554442143E-08   -0.1508260356886115E-10   -0.6502133900743168E-13   -0.1390306758608517E-09
 -0.3583   0.5117    0.5701804193647584E-01    0.3819013192994371E-03   -0.1483565503176208E-05   -0.3713147517952728E-01   -0.3594560512665771E+00   -0.2039147388758086E-06    0.1409536998404903E-08   -0.1715069058993990E-10   -0.8451832983480401E-13    0.6236484939581288E-10
 -0.3653   0.4904    0.5673170424170383E-01    0.4738048569949173E-03   -0.2936382454747322E-05    0.1838273195168842E-01   -0.4481396067419657E+00   -0.2525638462415104E-06    0.1382340741873378E-08   -0.1854046430271872E-10   -0.1152532930204231E-12    0.3856139157987215E-09
 -0.3726   0.4677    0.5495434473138330E-01    0.6460135668964337E-03   -0.4768495549494449E-05    0.6617435829157990E-01   -0.6111740364398893E+00   -0.3443290235397841E-06    0.1342914546925700E-08   -0.1927712156568617E-10   -0.1661344672942988E-12    0.8339899049136790E-09
 -0.3805   0.4437    0.5181151492625735E-01    0.9180714638694326E-03   -0.6710697238517095E-05    0.1047618799940593E+00   -0.8666848390142690E+00   -0.4896864014433200E-06    0.1287309292150041E-08   -0.1938079557950445E-10   -0.2317243619209819E-12    0.1387883433179304E-08
 -0.3887   0.4184    0.4752446239975944E-01    0.1299782889092102E-02   -0.8618833676395876E-05    0.1338473247937242E+00   -0.1223838236588047E+01   -0.6938909155840897E-06    0.1211795698508045E-08   -0.1880785804875273E-10   -0.3085032229677154E-12    0.2003466954836330E-08
 -0.3973   0.3919    0.4236827178468432E-01    0.1795306542932323E-02   -0.1045185125589467E-04    0.1543463479483276E+00   -0.1686504205354510E+01   -0.9591669526933537E-06    0.1113898487337117E-08   -0.1738580113208599E-10   -0.3512190538401683E-12    0.2618927880115862E-08
 -0.4062   0.3645    0.3664506489254111E-01    0.2406441284559531E-02   -0.1221141004270322E-04    0.1680835174258540E+00   -0.2256213245030457E+01   -0.1286508514694119E-05    0.9933799546835154E-09   -0.1483652090072951E-10   -0.4140437992461443E-12    0.3169648783024615E-08
 -0.4154   0.3362    0.3067243616453259E-01    0.3131995970551875E-02   -0.1384551817123327E-04    0.1772490347515672E+00   -0.2931591824631879E+01   -0.1675327005829712E-05    0.8526389039253957E-09   -0.1083155787284795E-10   -0.5106332023885329E-12    0.3605480547799744E-08
 -0.4248   0.3070    0.2478108940035635E-01    0.3964488012878351E-02   -0.1525100261493276E-04    0.1838531168083296E+00   -0.3705354982842033E+01   -0.2121672157061057E-05    0.6965508586587177E-09   -0.4997825070462980E-11   -0.5507261313653089E-12    0.3901086624742700E-08
 -0.4345   0.2773    0.1931396578819656E-01    0.4887072256331876E-02   -0.1628514634159087E-04    0.1893974038306265E+00   -0.4561527273223700E+01   -0.2616576002761221E-05    0.5321088084042636E-09    0.2939166271476168E-11   -0.6489253578934040E-12    0.4058626862244114E-08
 -0.4444   0.2469    0.1461975157683062E-01    0.5872565967779213E-02   -0.1681935522794612E-04    0.1948236613484151E+00   -0.5474602878176314E+01   -0.3145505887847134E-05    0.3678852708577374E-09    0.1313285591386659E-10   -0.6854378176157638E-12    0.4098388197391889E-08
 -0.4543   0.2162    0.1103590427691895E-01    0.6884801199739024E-02   -0.1675250967454493E-04    0.2006437247176059E+00   -0.6410848061831090E+01   -0.3689098551792342E-05    0.2136059350232866E-09    0.2543878996341675E-10   -0.7234907117847911E-12    0.4047849014310323E-08
 -0.4644   0.1853    0.8862341909708974E-02    0.7881452481786020E-02   -0.1603068048108676E-04    0.2071121253240266E+00   -0.7330957921879059E+01   -0.4224646963146446E-05    0.7928341663743232E-10    0.3939526482810152E-10   -0.7160522175198025E-12    0.3933969107070001E-08
 -0.4745   0.1542    0.8330860408566107E-02    0.8817090234486007E-02   -0.1462518863782044E-04    0.2143566114991769E+00   -0.8192888143626387E+01   -0.4727768121682203E-05   -0.2555929426439896E-10    0.5425340732223560E-10   -0.7230605003627488E-12    0.3778188528529014E-08
 -0.4846   0.1231    0.9575968134433399E-02    0.9645523906233331E-02   -0.1252550998013133E-04    0.2224499545990184E+00   -0.8954032617042387E+01   -0.5173624008245562E-05   -0.9305331505338188E-10    0.6898054349946392E-10   -0.6519368378476997E-12    0.3596620382594062E-08
 -0.4947   0.0921    0.1260995388999197E-01    0.1032123885676170E-01   -0.9716780200103851E-05    0.2314403701596024E+00   -0.9572541247738636E+01   -0.5537736740192534E-05   -0.1180720347881969E-09    0.8245015781227494E-10   -0.5514547152252192E-12    0.3400793029996463E-08
 -0.5047   0.0614    0.1730330820942462E-01    0.1080052997950230E-01   -0.6191870427861308E-05    0.2413608199709650E+00   -0.1000838712162634E+02   -0.5796546317213436E-05   -0.9915600111820577E-10    0.9347567164752490E-10   -0.4392146368825678E-12    0.3197967409114544E-08
 -0.5145   0.0311    0.2337188523724403E-01    0.1104337461806726E-01   -0.1964728804703271E-05    0.2522295692145400E+00   -0.1022508647753701E+02   -0.5928472978551388E-05   -0.3910171448781585E-10    0.1010007633084342E-09   -0.2904985280105521E-12    0.2993390802591422E-08
 -0.5242   0.0013    0.3037557935231230E-01    0.1101700510753788E-01    0.2883862592486237E-05    0.2640476364728711E+00   -0.1019300414269099E+02   -0.5915774355033944E-05    0.5479991807555429E-10    0.1041010611047000E-09   -0.8997663725196503E-13    0.2790341877695335E-08
 -0.5336  -0.0278    0.3773634744463310E-01    0.1070145465268811E-01    0.8172905687640972E-05    0.2767954773553921E+00   -0.9894401294920470E+01   -0.5747608372174349E-05    0.1711932574866015E-09    0.1022800732997098E-09    0.1007596783786369E-12    0.2590488379361489E-08
 -0.5428  -0.0561    0.4478404327049212E-01    0.1009622774397182E-01    0.1358849436445647E-04    0.2904300721180953E+00   -0.9329513946874718E+01   -0.5423555095755164E-05    0.2959993743167910E-09    0.9548140056381271E-10    0.2908506768761754E-12    0.2394713915013225E-08
 -0.5518  -0.0836    0.5083264177946557E-01    0.9226001089925667E-02    0.1870225351810775E-04    0.3048831682734177E+00   -0.8521645440701354E+01   -0.4956799986361032E-05    0.4144606463585276E-09    0.8428230335866260E-10    0.4745370763004075E-12    0.2202486529961911E-08
 -0.5604  -0.1100    0.5527800710646925E-01    0.8142584950143422E-02    0.2302566897254563E-04    0.3200610293655312E+00   -0.7518872705452360E+01   -0.4375109063755688E-05    0.5137907113650364E-09    0.6985645395474194E-10    0.6229322613293675E-12    0.2013723307894844E-08
 -0.5686  -0.1353    0.5769470405200733E-01    0.6920914489819456E-02    0.2611806631488788E-04    0.3358454056269518E+00   -0.6390243591803130E+01   -0.3718805496324852E-05    0.5855301729584816E-09    0.5385281109937523E-10    0.7731038031977278E-12    0.1826657545708765E-08
 -0.5764  -0.1594    0.5790298765059860E-01    0.5648864142990170E-02    0.2768949935947524E-04    0.3520946637836895E+00   -0.5216463186298428E+01   -0.3035152812690203E-05    0.6270350350057186E-09    0.3803701797977510E-10    0.8305300891464640E-12    0.1641066206536923E-08
 -0.5838  -0.1821    0.5598356065442238E-01    0.4413330371458277E-02    0.2767764661784123E-04    0.3686434906903490E+00   -0.4077147893416473E+01   -0.2371001092452972E-05    0.6412144218370663E-09    0.2400621368359168E-10    0.8527900607901984E-12    0.1455955737916792E-08
 -0.5907  -0.2033    0.5223701086816296E-01    0.3286875337250972E-02    0.2624338070924791E-04    0.3852999038654125E+00   -0.3038738347521913E+01   -0.1765398311841153E-05    0.6348523096111336E-09    0.1280187067465022E-10    0.8596179323916431E-12    0.1271945535008534E-08
 -0.5971  -0.2231    0.4710542936128154E-01    0.2318964907586252E-02    0.2370914714181836E-04    0.4018398800440158E+00   -0.2146486495246004E+01   -0.1245059001832331E-05    0.6162403365372882E-09    0.4822670041093602E-11    0.8394812622825043E-12    0.1089711178930974E-08
 -0.6030  -0.2412    0.4108518362051720E-01    0.1533734465607241E-02    0.2044879869305228E-04    0.4180024675536118E+00   -0.1422518840239521E+01   -0.8229167988339721E-06    0.5928992297121738E-09   -0.1145680772474122E-12    0.7838590887487840E-12    0.9116057440167191E-09
 -0.6083  -0.2576    0.3465598854506858E-01    0.9334252060648392E-03    0.1679610902779585E-04    0.4334904398853074E+00   -0.8688670722246055E+00   -0.5002609897812011E-06    0.5703711114524168E-09   -0.2582482838686673E-11    0.7462225282139912E-12    0.7407693868033416E-09
 -0.6131  -0.2723    0.2823897316597752E-01    0.5048301504288884E-03    0.1298261767577128E-04    0.4479814120183812E+00   -0.4734286310433451E+00   -0.2698845621315373E-06    0.5518215780153657E-09   -0.3329591810596888E-11    0.7124648093714825E-12    0.5800065809580257E-09
 -0.6173  -0.2852    0.2218185245138436E-01    0.2255673208459252E-03    0.9154172184755404E-05    0.4611507084324295E+00   -0.2154917169050029E+00   -0.1198853416245080E-06    0.5383407226944303E-09   -0.3066994574973947E-11    0.7057340822846925E-12    0.4337683753852239E-09
 -0.6208  -0.2961    0.1676082288738496E-01    0.6806169379162873E-04    0.5439642823768485E-05    0.4727012702060273E+00   -0.6951178976886559E-01   -0.3531829009111228E-07    0.5296612454186445E-09   -0.2389921593959343E-11    0.6738221092206231E-12    0.3048830432908489E-09
 -0.6238  -0.3051    0.1218502082247498E-01    0.6514604498858098E-06    0.2116871031229292E-05    0.4823909395268993E+00   -0.5904943473864587E-02    0.5816372495241165E-09    0.5245230291772707E-09   -0.1703994584323354E-11    0.6820013304098538E-12    0.1967334272920396E-09
 -0.6260  -0.3122    0.8593812202355494E-02   -0.1189909121584463E-04   -0.3127497357426663E-06    0.4900471855523401E+00    0.7888654247962071E-02    0.7003171754949757E-08    0.5214357037515785E-09   -0.1236254154601824E-11    0.6920342704986563E-12    0.1113123937641902E-09
 -0.6277  -0.3173    0.6046820886782296E-02   -0.4638763848478737E-05   -0.1149076915210729E-05    0.4955647375789305E+00    0.3858819676287419E-02    0.2518515194878959E-08    0.5183993705224627E-09   -0.9785327929889842E-12    0.7355214527715592E-12    0.4965437956638841E-10
 -0.6287  -0.3203    0.4530677476634179E-02   -0.1722385172557673E-06   -0.1723733764602873E-06    0.4988897700206588E+00    0.6474048447819999E-03    0.1470064249832319E-09    0.5150464555715717E-09   -0.5290516288947167E-12    0.5275081586819663E-12    0.1237690483955889E-10
 -0.6290  -0.3214    0.4024962489378194E-02    0.0000000000000000E+00    0.0000000000000000E+00    0.5000000000000000E+00   -0.8103904693980017E-04    0.0000000000000000E+00    0.0000000000000000E+00    0.0000000000000000E+00    0.0000000000000000E+00    0.0000000000000000E+00
 -0.3170   0.6287    0.2601366022119258E-01    0.0000000000000000E+00    0.0000000000000000E+00   -0.5000000000000000E+00   -0.4278789537728229E-02    0.0000000000000000E+00    0.0000000000000000E+00    0.0000000000000000E+00    0.0000000000000000E+00    0.0000000000000000E+00
 -0.3173   0.6277    0.2651367700342154E-01    0.1493025222939733E-05   -0.5093649664213945E-05   -0.4954171719436019E+00   -0.5516534884688532E-02   -0.2607312585358934E-08    0.1439892758411249E-08   -0.8892254879482031E-13   -0.1841933723600864E-12   -0.6028012941236560E-11
 -0.3183   0.6246    0.2798703016935368E-01    0.2159663751226480E-04   -0.2160064850606118E-04   -0.4816906744921602E+00   -0.9519608193324137E-02   -0.4574406046402133E-07    0.1439873857297935E-08   -0.2554441033697508E-12   -0.3637090628672013E-12   -0.2380601661980397E-10
 -0.3199   0.6196    0.3036283249293588E-01    0.9670217701941842E-04   -0.4072339467486980E-04   -0.4589009465962370E+00   -0.2159709132636334E-01   -0.2173625164948943E-06    0.1440488818504893E-08   -0.7171190724575283E-12   -0.1507474700623845E-12   -0.5315918018278243E-10
 -0.3222   0.6125    0.3353672609507351E-01    0.2506764544295226E-03   -0.5117765714441461E-04   -0.4272322071676138E+00   -0.4942944821460123E-01   -0.5674070460120247E-06    0.1442219930286592E-08   -0.2530383888532661E-11    0.3163198869504669E-12   -0.9334285427931022E-10
 -0.3252   0.6035    0.3735443180488739E-01    0.4710234845524160E-03   -0.5091400827701024E-04   -0.3870517143517595E+00   -0.9323996442386349E-01   -0.1059994733709879E-05    0.1444696268865231E-08   -0.6919478878764096E-11    0.7960108266980015E-12   -0.1422465374656401E-09
 -0.3287   0.5925    0.4158832104898958E-01    0.7183073322321208E-03   -0.4254869584135264E-04   -0.3390198402338616E+00   -0.1461067883699854E+00   -0.1603081237536073E-05    0.1446842725488784E-08   -0.1439753177789882E-10    0.1134578542227871E-11   -0.1943430104345278E-09
 -0.3329   0.5797    0.4593531520412690E-01    0.9465334397459174E-03   -0.3012416519660141E-04   -0.2842138873616095E+00   -0.1985459025214653E+00   -0.2093924892877115E-05    0.1447328206935494E-08   -0.2454350264691207E-10    0.1245814215677932E-11   -0.2398980528117711E-09
 -0.3377   0.5650    0.5003268007741329E-01    0.1122698961567426E-02   -0.1804477794441018E-04   -0.2242313318225153E+00   -0.2434040531655123E+00   -0.2459959078515471E-05    0.1444919123586019E-08   -0.3617493804508598E-10    0.1134562062354849E-11   -0.2623377001742533E-09