 title="result"
 variables="x","y","P","u","v","t","omega","psi","RES1","RES2","RES3","RES4"
zone,j= 49,i= 49,f=point
 -0.2693   0.6538    0.2520671273357619E-01    0.0000000000000000E+00    0.0000000000000000E+00   -0.5000000000000000E+00    0.0000000000000000E+00    0.0000000000000000E+00    0.0000000000000000E+00    0.0000000000000000E+00    0.0000000000000000E+00    0.0000000000000000E+00
 -0.2697   0.6528    0.2569794396513147E-01    0.0000000000000000E+00    0.0000000000000000E+00   -0.4952077093621612E+00    0.2873339274272770E-03    0.0000000000000000E+00    0.0000000000000000E+00    0.0000000000000000E+00    0.0000000000000000E+00    0.0000000000000000E+00
 -0.2709   0.6499    0.2712494753724280E-01    0.0000000000000000E+00    0.0000000000000000E+00   -0.4808540878557993E+00   -0.4464695381795089E-02    0.0000000000000000E+00    0.0000000000000000E+00    0.0000000000000000E+00    0.0000000000000000E+00    0.0000000000000000E+00
 -0.2730   0.6450    0.2941221681234393E-01    0.0000000000000000E+00    0.0000000000000000E+00   -0.4570255525294442E+00   -0.3445108306304077E-01    0.0000000000000000E+00    0.0000000000000000E+00    0.0000000000000000E+00    0.0000000000000000E+00    0.0000000000000000E+00
 -0.2758   0.6381    0.3249667399345836E-01    0.0000000000000000E+00    0.0000000000000000E+00   -0.4239246682951652E+00   -0.1019921302770422E+00    0.0000000000000000E+00    0.0000000000000000E+00    0.0000000000000000E+00    0.0000000000000000E+00    0.0000000000000000E+00
 -0.2795   0.6293    0.3626803021010477E-01    0.0000000000000000E+00    0.0000000000000000E+00   -0.3819664249873582E+00   -0.2016878745436914E+00    0.0000000000000000E+00    0.0000000000000000E+00    0.0000000000000000E+00    0.0000000000000000E+00    0.0000000000000000E+00
 -0.2839   0.6187    0.4052942048908691E-01    0.0000000000000000E+00    0.0000000000000000E+00   -0.3319160665278256E+00   -0.3162437013343237E+00    0.0000000000000000E+00    0.0000000000000000E+00    0.0000000000000000E+00    0.0000000000000000E+00    0.0000000000000000E+00
 -0.2891   0.6062    0.4498980991846575E-01    0.0000000000000000E+00    0.0000000000000000E+00   -0.2750407894951158E+00   -0.4232133998261419E+00    0.0000000000000000E+00    0.0000000000000000E+00    0.0000000000000000E+00    0.0000000000000000E+00    0.0000000000000000E+00
 -0.2950   0.5920    0.4927443844582128E-01    0.0000000000000000E+00    0.0000000000000000E+00   -0.2132172517159961E+00   -0.5028118776584077E+00    0.0000000000000000E+00    0.0000000000000000E+00    0.0000000000000000E+00    0.0000000000000000E+00    0.0000000000000000E+00
 -0.3017   0.5760    0.5296108587361392E-01    0.0000000000000000E+00    0.0000000000000000E+00   -0.1489241953708292E+00   -0.5458864533747577E+00    0.0000000000000000E+00    0.0000000000000000E+00    0.0000000000000000E+00    0.0000000000000000E+00    0.0000000000000000E+00
 -0.3090   0.5585    0.5563832929439998E-01    0.0000000000000000E+00    0.0000000000000000E+00   -0.8507402291219426E-01   -0.5603510317838661E+00    0.0000000000000000E+00    0.0000000000000000E+00    0.0000000000000000E+00    0.0000000000000000E+00    0.0000000000000000E+00
 -0.3170   0.5393    0.5697974369906942E-01    0.0000000000000000E+00    0.0000000000000000E+00   -0.2469471392240644E-01   -0.5722319377890223E+00    0.0000000000000000E+00    0.0000000000000000E+00    0.0000000000000000E+00    0.0000000000000000E+00    0.0000000000000000E+00
 -0.3256   0.5186    0.5680764869533748E-01    0.0000000000000000E+00    0.0000000000000000E+00    0.2947082906683112E-01   -0.6187443808254185E+00    0.0000000000000000E+00    0.0000000000000000E+00    0.0000000000000000E+00    0.0000000000000000E+00    0.0000000000000000E+00
 -0.3348   0.4966    0.5511834181937145E-01    0.0000000000000000E+00    0.0000000000000000E+00    0.7536068319238538E-01   -0.7360167466680593E+00    0.0000000000000000E+00    0.0000000000000000E+00    0.0000000000000000E+00    0.0000000000000000E+00    0.0000000000000000E+00
 -0.3445   0.4733    0.5205650680048841E-01    0.0000000000000000E+00    0.0000000000000000E+00    0.1119053935595944E+00   -0.9490107199386689E+00    0.0000000000000000E+00    0.0000000000000000E+00    0.0000000000000000E+00    0.0000000000000000E+00    0.0000000000000000E+00
 -0.3547   0.4487    0.4786025062451451E-01    0.0000000000000000E+00    0.0000000000000000E+00    0.1391787498002888E+00   -0.1269671286061790E+01    0.0000000000000000E+00    0.0000000000000000E+00    0.0000000000000000E+00    0.0000000000000000E+00    0.0000000000000000E+00
 -0.3654   0.4231    0.4281034885783312E-01    0.0000000000000000E+00    0.0000000000000000E+00    0.1583153343906769E+00   -0.1701756854644412E+01    0.0000000000000000E+00    0.0000000000000000E+00    0.0000000000000000E+00    0.0000000000000000E+00    0.0000000000000000E+00
 -0.3765   0.3964    0.3720336353289186E-01    0.0000000000000000E+00    0.0000000000000000E+00    0.1711757392347280E+00   -0.2245767792572571E+01    0.0000000000000000E+00    0.0000000000000000E+00    0.0000000000000000E+00    0.0000000000000000E+00    0.0000000000000000E+00
 -0.3880   0.3689    0.3134469952304739E-01    0.0000000000000000E+00    0.0000000000000000E+00    0.1798546403582482E+00   -0.2899681691668776E+01    0.0000000000000000E+00    0.0000000000000000E+00    0.0000000000000000E+00    0.0000000000000000E+00    0.0000000000000000E+00
 -0.3997   0.3406    0.2555061382320114E-01    0.0000000000000000E+00    0.0000000000000000E+00    0.1862205067894353E+00   -0.3656444652269505E+01    0.0000000000000000E+00    0.0000000000000000E+00    0.0000000000000000E+00    0.0000000000000000E+00    0.0000000000000000E+00
 -0.4118   0.3117    0.2014978489097997E-01    0.0000000000000000E+00    0.0000000000000000E+00    0.1916531258791420E+00   -0.4501221145774011E+01    0.0000000000000000E+00    0.0000000000000000E+00    0.0000000000000000E+00    0.0000000000000000E+00    0.0000000000000000E+00
 -0.4240   0.2823    0.1547859815035824E-01    0.0000000000000000E+00    0.0000000000000000E+00    0.1970169922250397E+00   -0.5410357186872647E+01    0.0000000000000000E+00    0.0000000000000000E+00    0.0000000000000000E+00    0.0000000000000000E+00    0.0000000000000000E+00
 -0.4364   0.2525    0.1186634971750628E-01    0.0000000000000000E+00    0.0000000000000000E+00    0.2027851978309604E+00   -0.6352335375023289E+01    0.0000000000000000E+00    0.0000000000000000E+00    0.0000000000000000E+00    0.0000000000000000E+00    0.0000000000000000E+00
 -0.4490   0.2225    0.9611674114548724E-02    0.0000000000000000E+00    0.0000000000000000E+00    0.2091962840119299E+00   -0.7290036321687865E+01    0.0000000000000000E+00    0.0000000000000000E+00    0.0000000000000000E+00    0.0000000000000000E+00    0.0000000000000000E+00
 -0.4615   0.1923    0.8954644935090492E-02    0.0000000000000000E+00    0.0000000000000000E+00    0.2163723189017371E+00   -0.8183215686892344E+01    0.0000000000000000E+00    0.0000000000000000E+00    0.0000000000000000E+00    0.0000000000000000E+00    0.0000000000000000E+00
 -0.4741   0.1621    0.1004958450461140E-01    0.0000000000000000E+00    0.0000000000000000E+00    0.2243842759643868E+00   -0.8990349437425875E+01    0.0000000000000000E+00    0.0000000000000000E+00    0.0000000000000000E+00    0.0000000000000000E+00    0.0000000000000000E+00
 -0.4866   0.1320    0.1294077406139930E-01    0.0000000000000000E+00    0.0000000000000000E+00    0.2332800291426899E+00   -0.9669598252367745E+01    0.0000000000000000E+00    0.0000000000000000E+00    0.0000000000000000E+00    0.0000000000000000E+00    0.0000000000000000E+00
 -0.4991   0.1022    0.1754152621302767E-01    0.0000000000000000E+00    0.0000000000000000E+00    0.2430929993637248E+00   -0.1017941354956503E+02    0.0000000000000000E+00    0.0000000000000000E+00    0.0000000000000000E+00    0.0000000000000000E+00    0.0000000000000000E+00
 -0.5113   0.0728    0.2361728330558672E-01    0.0000000000000000E+00    0.0000000000000000E+00    0.2538426146204501E+00   -0.1047977314164181E+02    0.0000000000000000E+00    0.0000000000000000E+00    0.0000000000000000E+00    0.0000000000000000E+00    0.0000000000000000E+00
 -0.5234   0.0439    0.3077692688036991E-01    0.0000000000000000E+00    0.0000000000000000E+00    0.2655317408449629E+00   -0.1053511296168536E+02    0.0000000000000000E+00    0.0000000000000000E+00    0.0000000000000000E+00    0.0000000000000000E+00    0.0000000000000000E+00
 -0.5351   0.0157    0.3848049551661869E-01    0.0000000000000000E+00    0.0000000000000000E+00    0.2781432596388821E+00   -0.1031947874038830E+02    0.0000000000000000E+00    0.0000000000000000E+00    0.0000000000000000E+00    0.0000000000000000E+00    0.0000000000000000E+00
 -0.5466  -0.0119    0.4607365196614450E-01    0.0000000000000000E+00    0.0000000000000000E+00    0.2916369219121958E+00   -0.9823424044419655E+01    0.0000000000000000E+00    0.0000000000000000E+00    0.0000000000000000E+00    0.0000000000000000E+00    0.0000000000000000E+00
 -0.5577  -0.0385    0.5285530986790456E-01    0.0000000000000000E+00    0.0000000000000000E+00    0.3059472629961922E+00   -0.9060826551985350E+01    0.0000000000000000E+00    0.0000000000000000E+00    0.0000000000000000E+00    0.0000000000000000E+00    0.0000000000000000E+00
 -0.5684  -0.0641    0.5817387022517997E-01    0.0000000000000000E+00    0.0000000000000000E+00    0.3209830354613457E+00   -0.8072814724783099E+01    0.0000000000000000E+00    0.0000000000000000E+00    0.0000000000000000E+00    0.0000000000000000E+00    0.0000000000000000E+00
 -0.5786  -0.0887    0.6153228947187159E-01    0.0000000000000000E+00    0.0000000000000000E+00    0.3366280256660061E+00   -0.6926037035447675E+01    0.0000000000000000E+00    0.0000000000000000E+00    0.0000000000000000E+00    0.0000000000000000E+00    0.0000000000000000E+00
 -0.5883  -0.1120    0.6267137329586907E-01    0.0000000000000000E+00    0.0000000000000000E+00    0.3527423188148218E+00   -0.5704235076441684E+01    0.0000000000000000E+00    0.0000000000000000E+00    0.0000000000000000E+00    0.0000000000000000E+00    0.0000000000000000E+00
 -0.5975  -0.1341    0.6160314611047586E-01    0.0000000000000000E+00    0.0000000000000000E+00    0.3691624299719403E+00   -0.4494817698682406E+01    0.0000000000000000E+00    0.0000000000000000E+00    0.0000000000000000E+00    0.0000000000000000E+00    0.0000000000000000E+00
 -0.6061  -0.1547    0.5858372042994860E-01    0.0000000000000000E+00    0.0000000000000000E+00    0.3856988331305273E+00   -0.3374589908546772E+01    0.0000000000000000E+00    0.0000000000000000E+00    0.0000000000000000E+00    0.0000000000000000E+00    0.0000000000000000E+00
 -0.6141  -0.1739    0.5403894269434250E-01    0.0000000000000000E+00    0.0000000000000000E+00    0.4021308232447132E+00   -0.2399160313467707E+01    0.0000000000000000E+00    0.0000000000000000E+00    0.0000000000000000E+00    0.0000000000000000E+00    0.0000000000000000E+00
 -0.6214  -0.1915    0.4847203225865539E-01    0.0000000000000000E+00    0.0000000000000000E+00    0.4182012216956094E+00   -0.1598835787019451E+01    0.0000000000000000E+00    0.0000000000000000E+00    0.0000000000000000E+00    0.0000000000000000E+00    0.0000000000000000E+00
 -0.6281  -0.2074    0.4238300725948718E-01    0.0000000000000000E+00    0.0000000000000000E+00    0.4336159447886109E+00   -0.9807945160555436E+00    0.0000000000000000E+00    0.0000000000000000E+00    0.0000000000000000E+00    0.0000000000000000E+00    0.0000000000000000E+00
 -0.6340  -0.2217    0.3621715382557224E-01    0.0000000000000000E+00    0.0000000000000000E+00    0.4480538105901071E+00   -0.5351557149604580E+00    0.0000000000000000E+00    0.0000000000000000E+00    0.0000000000000000E+00    0.0000000000000000E+00    0.0000000000000000E+00
 -0.6392  -0.2341    0.3034430324181651E-01    0.0000000000000000E+00    0.0000000000000000E+00    0.4611886340767890E+00   -0.2415108989620122E+00    0.0000000000000000E+00    0.0000000000000000E+00    0.0000000000000000E+00    0.0000000000000000E+00    0.0000000000000000E+00
 -0.6436  -0.2448    0.2505853959126597E-01    0.0000000000000000E+00    0.0000000000000000E+00    0.4727194582681602E+00   -0.7346991219394421E-01    0.0000000000000000E+00    0.0000000000000000E+00    0.0000000000000000E+00    0.0000000000000000E+00    0.0000000000000000E+00
 -0.6473  -0.2535    0.2058360021381679E-01    0.0000000000000000E+00    0.0000000000000000E+00    0.4823991644228218E+00   -0.4057700865823136E-04    0.0000000000000000E+00    0.0000000000000000E+00    0.0000000000000000E+00    0.0000000000000000E+00    0.0000000000000000E+00
 -0.6501  -0.2604    0.1707103309014136E-01    0.0000000000000000E+00    0.0000000000000000E+00    0.4900507896252369E+00    0.1394688915368203E-01    0.0000000000000000E+00    0.0000000000000000E+00    0.0000000000000000E+00    0.0000000000000000E+00    0.0000000000000000E+00
 -0.6522  -0.2653    0.1458967154490783E-01    0.0000000000000000E+00    0.0000000000000000E+00    0.4955661600247103E+00    0.5232388544947457E-02    0.0000000000000000E+00    0.0000000000000000E+00    0.0000000000000000E+00    0.0000000000000000E+00    0.0000000000000000E+00
 -0.6534  -0.2683    0.1311948825218507E-01    0.0000000000000000E+00    0.0000000000000000E+00    0.4988901151932336E+00   -0.6382522397501339E-04    0.0000000000000000E+00    0.0000000000000000E+00    0.0000000000000000E+00    0.0000000000000000E+00    0.0000000000000000E+00
 -0.6538  -0.2693    0.1262920048255663E-01    0.0000000000000000E+00    0.0000000000000000E+00    0.5000000000000000E+00    0.0000000000000000E+00    0.0000000000000000E+00    0.0000000000000000E+00    0.0000000000000000E+00    0.0000000000000000E+00    0.0000000000000000E+00
 -0.2683   0.6534    0.2541306450797578E-01    0.0000000000000000E+00    0.0000000000000000E+00   -0.5000000000000000E+00    0.2874645937565004E-03    0.0000000000000000E+00    0.0000000000000000E+00    0.0000000000000000E+00    0.0000000000000000E+00    0.0000000000000000E+00
 -0.2687   0.6524    0.2590331075310117E-01    0.5531591310673497E-07   -0.5522610704965999E-07   -0.4952075729927634E+00   -0.6316238093115127E-03   -0.2613999223971318E-10   -0.1587563063594390E-08    0.7907888753544423E-13    0.7597676827952871E-13    0.4786041246478134E-11
 -0.2699   0.6495    0.2733165029400431E-01    0.5933425069153637E-05   -0.1884828446762698E-05   -0.4808535356018891E+00   -0.7009837676948799E-02   -0.2947092024124036E-08   -0.1587325129410316E-08    0.5651902557080035E-13    0.7873562912763532E-13    0.1916889433642432E-10
 -0.2720   0.6446    0.2962070161967215E-01    0.3663485904640979E-04   -0.4213341402331380E-05   -0.4570242667310777E+00   -0.3418215448190780E-01   -0.1970059374286892E-07   -0.1587994157177530E-08    0.1006204668196897E-12    0.4821143484434742E-13    0.4250066097666316E-10
 -0.2748   0.6377    0.3269886892668736E-01    0.1057078649024377E-03   -0.5623819807592928E-05   -0.4239222684529106E+00   -0.9566370539769020E-01   -0.5717792461256505E-07   -0.1589974495813662E-08    0.5533368901966540E-12    0.4499872696683838E-13    0.7454323963651532E-10
 -0.2785   0.6289    0.3645429052919273E-01    0.2089155198997723E-03   -0.5927572864674235E-05   -0.3819624982868964E+00   -0.1887166424830800E+00   -0.1130732076234189E-06   -0.1592494251051457E-08    0.1756112616435601E-11    0.5079617282355287E-13    0.1117241195391916E-09
 -0.2829   0.6183    0.4069157180002397E-01    0.3287309229917914E-03   -0.5171477202422152E-05   -0.3319102502670827E+00   -0.2979883678966834E+00   -0.1776858408421925E-06   -0.1594209642769018E-08    0.3781447377448899E-11   -0.2056341208422907E-13    0.1497037285802527E-09
 -0.2881   0.6058    0.4512175503344002E-01    0.4418336647670017E-03   -0.3790323329432146E-05   -0.2750328820633249E+00   -0.4023021684685115E+00   -0.2384923239358532E-06   -0.1593649379995343E-08    0.6472614111352470E-11   -0.3011133009600542E-13    0.1772296129298745E-09
 -0.2940   0.5916    0.4937311678208656E-01    0.5274069046767601E-03   -0.2181320326957828E-05   -0.2132073119973402E+00   -0.4825763540018254E+00   -0.2842236225684532E-06   -0.1589523613426680E-08    0.9478438867116523E-11    0.6978792543854695E-14    0.1769995677802783E-09
 -0.3007   0.5756    0.5302686031391106E-01    0.5756629511723362E-03   -0.8756252236939980E-06   -0.1489125840675363E+00   -0.5296552262289618E+00   -0.3096822396126873E-06   -0.1580730858491072E-08    0.1239709723765969E-10    0.3513161983548230E-13    0.1260983817363837E-09
 -0.3080   0.5580    0.5567496196514941E-01    0.5946746670928782E-03   -0.2860599674514320E-06   -0.8506136128048931E-01   -0.5507166891288678E+00   -0.3192279454999480E-06   -0.1566097537135207E-08    0.1487469522554186E-10    0.6565364571442522E-13   -0.1515038094979104E-11
 -0.3160   0.5389    0.5699340629203298E-01    0.6115658774075046E-03   -0.6733943963870084E-06   -0.2468177889189091E-01   -0.5703929807062695E+00   -0.3275328664576279E-06   -0.1544056687629441E-08    0.1668740493010468E-10    0.1188758293191317E-12   -0.2292696171801722E-09
 -0.3246   0.5182    0.5680532788400736E-01    0.6653404528494649E-03   -0.1951029285749561E-05    0.2948322566364719E-01   -0.6243409708725867E+00   -0.3556069338479537E-06   -0.1512351598988160E-08    0.1775684634053309E-10    0.1319725578818876E-12   -0.5710855260909753E-09
 -0.3338   0.4962    0.5510630724978244E-01    0.7940545995452358E-03   -0.3816502475128707E-05    0.7537179890220694E-01   -0.7475238799482563E+00   -0.4239416914546568E-06   -0.1467988222300654E-08    0.1812467884110269E-10    0.1493735690694109E-12   -0.1025704451929066E-08
 -0.3435   0.4728    0.5203964948624708E-01    0.1024185903954386E-02   -0.5885483894155258E-05    0.1119146476132199E+00   -0.9644528900126331E+00   -0.5467470569679197E-06   -0.1407382281895520E-08    0.1785780551211147E-10    0.2157996004115148E-12   -0.1572168097097038E-08
 -0.3537   0.4483    0.4784224461706308E-01    0.1368543197769176E-02   -0.7929834477339002E-05    0.1391858139856096E+00   -0.1287113559336583E+01   -0.7308791897824543E-06   -0.1327198032030630E-08    0.1695257823008944E-10    0.2677580379639721E-12   -0.2169641230564956E-08
 -0.3644   0.4226    0.4279402081195814E-01    0.1831196191338426E-02   -0.9863167631100417E-05    0.1583201965046561E+00   -0.1719354630177645E+01   -0.9785079671935375E-06   -0.1225229587925591E-08    0.1528326076805087E-10    0.3117506253147440E-12   -0.2762337678041682E-08
 -0.3755   0.3960    0.3719073743858357E-01    0.2412591708740535E-02   -0.1168823693792775E-04    0.1711786870777090E+00   -0.2261509626879314E+01   -0.1289886631777860E-05   -0.1101389524721386E-08    0.1259427978572703E-10    0.4105674134002868E-12   -0.3292026665158154E-08
 -0.3870   0.3685    0.3133677412876225E-01    0.3110340416666560E-02   -0.1336493446821613E-04    0.1798561484150032E+00   -0.2911136439068682E+01   -0.1663780027326823E-05   -0.9580156841437759E-09    0.8588144084775706E-11    0.4742872761198669E-12   -0.3712176144601842E-08
 -0.3988   0.3402    0.2554718708939333E-01    0.3916613834558423E-02   -0.1481305598737501E-04    0.1862210761902665E+00   -0.3660662905544646E+01   -0.2096041523887938E-05   -0.7998605389136770E-09    0.2937147053350131E-11    0.5529465774145592E-12   -0.3998408318415386E-08
 -0.4108   0.3113    0.2014949296779988E-01    0.4815293566822220E-02   -0.1590623827286829E-04    0.1916531588092645E+00   -0.4494810230868286E+01   -0.2578092993321874E-05   -0.6336503127757354E-09   -0.4616477339292047E-11    0.6179362577185543E-12   -0.4150555158951869E-08
 -0.4230   0.2819    0.1547914593973843E-01    0.5780931377401842E-02   -0.1653300682536078E-04    0.1970167463161555E+00   -0.5389690875391554E+01   -0.3096326371306280E-05   -0.4676875969833461E-09   -0.1419273726321890E-10    0.6859651735524608E-12   -0.4187147600431124E-08
 -0.4355   0.2521    0.1186480585344561E-01    0.6779816742256861E-02   -0.1659871778570701E-04    0.2027848071079980E+00   -0.6313841752733378E+01   -0.3632702601667980E-05   -0.3112605069521823E-09   -0.2569719437239826E-10    0.7213118990989642E-12   -0.4133355627818774E-08
 -0.4480   0.2221    0.9604746647420202E-02    0.7772410094787257E-02   -0.1605383201673053E-04    0.2091958046185912E+00   -0.7230516565660346E+01   -0.4166010135173224E-05   -0.1739213703610965E-09   -0.3870831433161470E-10    0.7280842595491777E-12   -0.4015877851613892E-08
 -0.4606   0.1919    0.8938847590854700E-02    0.8715986519234496E-02   -0.1486488536983741E-04    0.2163717681227580E+00   -0.8100137265737184E+01   -0.4673329199033119E-05   -0.6476189723381154E-10   -0.5257422275306567E-10    0.7399358903370512E-12   -0.3855716217658622E-08
 -0.4731   0.1617    0.1002130395305446E-01    0.9566594153337781E-02   -0.1301468994647466E-04    0.2243836552420821E+00   -0.8882119880722547E+01   -0.5131029235962653E-05    0.8600595929886268E-11   -0.6633232851882553E-10    0.6793593465559411E-12   -0.3669067934024273E-08
 -0.4857   0.1316    0.1289624092679962E-01    0.1028008181302874E-01   -0.1047217172388831E-04    0.2332793348156273E+00   -0.9535815361668554E+01   -0.5515380032866929E-05    0.4104553155692692E-10   -0.7890499365004189E-10    0.6197264923457624E-12   -0.3467285088383509E-08
 -0.4981   0.1018    0.1747680527976054E-01    0.1081275250147563E-01   -0.7208144428772549E-05    0.2430922270744465E+00   -0.1002114155446508E+02   -0.5802833857262424E-05    0.3090013661610769E-10   -0.8916034577310938E-10    0.5234979116863769E-12   -0.3258358859635491E-08
 -0.5103   0.0724    0.2352834248629652E-01    0.1112269052176834E-01   -0.3201640690495632E-05    0.2538417611738901E+00   -0.1029980763075757E+02   -0.5970809111948615E-05   -0.1934309396683931E-10   -0.9596862193816946E-10    0.3662990050168347E-12   -0.3047750328152854E-08
 -0.5224   0.0435    0.3065992242766794E-01    0.1117286731658536E-01    0.1508296442918442E-05    0.2655308051000013E+00   -0.1033820701918925E+02   -0.5999276852840347E-05   -0.1027279658907809E-09   -0.9848227788822328E-10    0.2078077293576897E-12   -0.2838694550255649E-08
 -0.5341   0.0152    0.3833226405142229E-01    0.1093655958043115E-01    0.6787281646239548E-05    0.2781422428207881E+00   -0.1011236287875775E+02   -0.5873768699527031E-05   -0.2082139929221460E-09   -0.9611711426771308E-10   -0.3122502256758253E-15   -0.2633615596436822E-08
 -0.5456  -0.0123    0.4589241752774383E-01    0.1040455083898242E-01    0.1235683635324776E-04    0.2916358272682411E+00   -0.9614512544697480E+01   -0.5589164131152840E-05   -0.3219334486492809E-09   -0.8886091862336798E-10   -0.1739719479587620E-12   -0.2432771518956489E-08
 -0.5567  -0.0389    0.5264137521067615E-01    0.9592192345835585E-02    0.1780088225901283E-04    0.3059460946772428E+00   -0.8859449944592319E+01   -0.5153623120745264E-05   -0.4292090502455714E-09   -0.7732253726189242E-10   -0.3737565812400589E-12   -0.2236624430801415E-08
 -0.5674  -0.0645    0.5793010549761817E-01    0.8543387307350526E-02    0.2260490819814500E-04    0.3209817967680593E+00   -0.7888078616275902E+01   -0.4590634096894431E-05   -0.5173545550296588E-09   -0.6273487285213264E-10   -0.5097589017566406E-12   -0.2044114173066491E-08
 -0.5776  -0.0891    0.6126408348706742E-01    0.7328650508876993E-02    0.2626533301679574E-04    0.3366267172849005E+00   -0.6765475080948154E+01   -0.3938129133443988E-05   -0.5781302658824927E-09   -0.4680267284840056E-10   -0.6605965774397760E-12   -0.1854533301232086E-08
 -0.5873  -0.1124    0.6238602974471769E-01    0.6036199421181630E-02    0.2840435831113720E-04    0.3527409382006935E+00   -0.5572719903930012E+01   -0.3243539673722254E-05   -0.6092941290392062E-09   -0.3136718662588578E-10   -0.7116529587847253E-12   -0.1666805882552524E-08
 -0.5965  -0.1345    0.6130875565003570E-01    0.4757892855227702E-02    0.2887321275834633E-04    0.3691609732792344E+00   -0.4393998514073025E+01   -0.2556390323459523E-05   -0.6142217845450659E-09   -0.1800018467612574E-10   -0.7361056209020944E-12   -0.1480346444385217E-08
 -0.6051  -0.1551    0.5828796978558554E-01    0.3574338179411607E-02    0.2777159377056381E-04    0.3856973006293035E+00   -0.3303114711261498E+01   -0.1920058184496809E-05   -0.6001675892375324E-09   -0.7718631289677091E-11   -0.7053246875443620E-12   -0.1294755450423346E-08
 -0.6131  -0.1743    0.5374812095495720E-01    0.2543872865950729E-02    0.2539929445550310E-04    0.4021292277177841E+00   -0.2353422777177508E+01   -0.1366048334073070E-05   -0.5757140320028498E-09   -0.8113371086082566E-12   -0.6879913305724017E-12   -0.1111126279526586E-08
 -0.6204  -0.1919    0.4819064775596552E-01    0.1698299347341171E-02    0.2214400700528585E-04    0.4181995971499943E+00   -0.1574056231199547E+01   -0.9114202965768194E-06   -0.5484466839011937E-09    0.3037098350588963E-11   -0.6455808110317207E-12   -0.9311380607529562E-09
 -0.6271  -0.2078    0.4211385757297084E-01    0.1045162445299994E-02    0.1837335340529769E-04    0.4336143509496194E+00   -0.9718993560991638E+00   -0.5603299727841145E-06   -0.5236787739559823E-09    0.4507866302461139E-11   -0.6418199305358030E-12   -0.7579738937196767E-09
 -0.6330  -0.2221    0.3596186507480701E-01    0.5740471908412400E-03    0.1435791905201949E-04    0.4480523285990023E+00   -0.5374195506896227E+00   -0.3070624639707113E-06   -0.5042067145744067E-09    0.4433051582070080E-11   -0.5872385910876687E-12   -0.5948869816890801E-09
 -0.6382  -0.2345    0.3010373938349933E-01    0.2633646594212560E-03    0.1026980956841531E-04    0.4611873515547551E+00   -0.2506389891296291E+00   -0.1401527851633606E-06   -0.4906723048703210E-09    0.3575372636843710E-11   -0.5745265374557107E-12   -0.4452661503395738E-09
 -0.6426  -0.2452    0.2483298125110156E-01    0.8502279575542187E-04    0.6256505762660945E-05    0.4727184468648069E+00   -0.8554035442447304E-01   -0.4436384770781253E-07   -0.4824157687904895E-09    0.2506047452888183E-11   -0.5747138875911162E-12   -0.3134718968775263E-09
 -0.6463  -0.2539    0.2037197727960002E-01    0.5947658798143573E-05    0.2607595577036147E-05    0.4823984578445440E+00   -0.1120674128091859E-01   -0.2193859101678276E-08   -0.4778733363880461E-09    0.1627014495353407E-11   -0.5933014496362077E-12   -0.2025712401640400E-09
 -0.6492  -0.2608    0.1686947915645253E-01   -0.1132612209835796E-04   -0.1298778825802495E-06    0.4900503719760088E+00    0.7013690473726634E-02    0.6759247060717193E-08   -0.4753469419704849E-09    0.1087923154341475E-11   -0.5865757098794111E-12   -0.1145456797989330E-09
 -0.6512  -0.2657    0.1438966823170437E-01   -0.4865709667404545E-05   -0.1176455450218602E-05    0.4955659706885720E+00    0.3924963616791746E-02    0.2659363489430167E-08   -0.4728273625496243E-09    0.8474939500180412E-12   -0.6399637764165078E-12   -0.5110789070596200E-10
 -0.6524  -0.2687    0.1291713360095867E-01   -0.1947603411012035E-06   -0.1948127959943367E-06    0.4988900676465866E+00    0.6890262691890348E-03    0.1659803501018006E-09   -0.4699318039737277E-09    0.4405743348270819E-12   -0.4467845364508616E-12   -0.1308416764690679E-10
 -0.6528  -0.2697    0.1242661719744115E-01    0.0000000000000000E+00    0.0000000000000000E+00    0.5000000000000000E+00   -0.6346732152803873E-04    0.0000000000000000E+00    0.0000000000000000E+00    0.0000000000000000E+00    0.0000000000000000E+00    0.0000000000000000E+00
 -0.2653   0.6522    0.2604749033333854E-01    0.0000000000000000E+00    0.0000000000000000E+00   -0.5000000000000000E+00   -0.4461606786579128E-02    0.0000000000000000E+00    0.0000000000000000E+00    0.0000000000000000E+00    0.0000000000000000E+00    0.0000000000000000E+00
 -0.2657   0.6512    0.2653049430578688E-01    0.1883531800856333E-05   -0.5931224379335035E-05   -0.4952055533455654E+00   -0.7008517434549411E-02   -0.2945687701016890E-08   -0.1587077694091554E-08    0.8241953126930657E-13    0.1718247939763717E-12    0.4937986000999595E-11
 -0.2670   0.6482    0.2794996095667434E-01    0.2913649755687305E-04   -0.2914079400968493E-04   -0.4808453866061346E+00   -0.1453957740233226E-01   -0.5851068557900216E-07   -0.1587073472641976E-08    0.2430489620328102E-12    0.3337764092892215E-12    0.1904283024670161E-10
 -0.2690   0.6433    0.3023344684072682E-01    0.1394076638736011E-03   -0.6113246098842660E-04   -0.4570054528701527E+00   -0.3434358190127974E-01   -0.3056184847007108E-06   -0.1587698160443463E-08    0.7387892381194305E-12    0.9166105374713851E-13    0.4248114793964364E-10
 -0.2719   0.6365    0.3329160475609902E-01    0.3834278251402309E-03   -0.8357248213418275E-04   -0.4238874655556817E+00   -0.7977007188005489E-01   -0.8564917480645999E-06   -0.1589335503482392E-08    0.2677075575108212E-11   -0.3957216498928773E-12    0.7438778239221566E-10
 -0.2755   0.6277    0.3700252337155897E-01    0.7576864250009680E-03   -0.8937869167872714E-04   -0.3819058565953442E+00   -0.1543149729015825E+00   -0.1692319484390831E-05   -0.1591495005226484E-08    0.7257132395022126E-11   -0.8728469336194422E-12    0.1117857265087174E-09
 -0.2799   0.6171    0.4117175547134765E-01    0.1204721653364935E-02   -0.7975031121928354E-04   -0.3318264616384634E+00   -0.2483992495570034E+00   -0.2678077183979477E-05   -0.1592985257592439E-08    0.1489339901405984E-10   -0.1175195357694392E-11    0.1497690513274641E-09
 -0.2851   0.6046    0.4551568321947724E-01    0.1640188831011568E-02   -0.5976896693493062E-04   -0.2749187618192717E+00   -0.3448524893930858E+00   -0.3624999278803075E-05   -0.1592379710729785E-08    0.2505515933615143E-10   -0.1255287540580241E-11    0.1772343521944109E-09
 -0.2911   0.5904    0.4967101765527236E-01    0.1985649357423783E-02   -0.3614114897594107E-04   -0.2130633215781565E+00   -0.4267522856226168E+00   -0.4360663538089567E-05   -0.1588370070887413E-08    0.3647491336744579E-10   -0.1125740126117769E-11    0.1770098234654682E-09