 title="result"
 variables="x","y","P","u","v","t","omega","psi","RES1","RES2","RES3","RES4"
zone,j= 49,i= 49,f=point
 -0.4373   0.5557    0.2446266737670862E-01    0.0000000000000000E+00    0.0000000000000000E+00   -0.5000000000000000E+00    0.0000000000000000E+00    0.0000000000000000E+00    0.0000000000000000E+00    0.0000000000000000E+00    0.0000000000000000E+00    0.0000000000000000E+00
 -0.4374   0.5546    0.2498997743314945E-01    0.0000000000000000E+00    0.0000000000000000E+00   -0.4959911129885458E+00   -0.2132725750989984E-03    0.0000000000000000E+00    0.0000000000000000E+00    0.0000000000000000E+00    0.0000000000000000E+00    0.0000000000000000E+00
 -0.4378   0.5514    0.2655571928363624E-01    0.0000000000000000E+00    0.0000000000000000E+00   -0.4839833276862377E+00   -0.4315212366154606E-02    0.0000000000000000E+00    0.0000000000000000E+00    0.0000000000000000E+00    0.0000000000000000E+00    0.0000000000000000E+00
 -0.4384   0.5461    0.2911131074102694E-01    0.0000000000000000E+00    0.0000000000000000E+00   -0.4640433117863260E+00   -0.8615506703877351E-02    0.0000000000000000E+00    0.0000000000000000E+00    0.0000000000000000E+00    0.0000000000000000E+00    0.0000000000000000E+00
 -0.4393   0.5387    0.3253176869504615E-01    0.0000000000000000E+00    0.0000000000000000E+00   -0.4363140889880048E+00    0.1169713246656255E-02    0.0000000000000000E+00    0.0000000000000000E+00    0.0000000000000000E+00    0.0000000000000000E+00    0.0000000000000000E+00
 -0.4405   0.5293    0.3658776039900347E-01    0.0000000000000000E+00    0.0000000000000000E+00   -0.4010561767610977E+00    0.3652323727242442E-01    0.0000000000000000E+00    0.0000000000000000E+00    0.0000000000000000E+00    0.0000000000000000E+00    0.0000000000000000E+00
 -0.4418   0.5179    0.4097387544273193E-01    0.0000000000000000E+00    0.0000000000000000E+00   -0.3586937353636684E+00    0.9866709624106523E-01    0.0000000000000000E+00    0.0000000000000000E+00    0.0000000000000000E+00    0.0000000000000000E+00    0.0000000000000000E+00
 -0.4434   0.5045    0.4534001043953607E-01    0.0000000000000000E+00    0.0000000000000000E+00   -0.3098655996823983E+00    0.1776648351270839E+00    0.0000000000000000E+00    0.0000000000000000E+00    0.0000000000000000E+00    0.0000000000000000E+00    0.0000000000000000E+00
 -0.4452   0.4891    0.4932463503980276E-01    0.0000000000000000E+00    0.0000000000000000E+00   -0.2554916988323659E+00    0.2544207836370773E+00    0.0000000000000000E+00    0.0000000000000000E+00    0.0000000000000000E+00    0.0000000000000000E+00    0.0000000000000000E+00
 -0.4473   0.4720    0.5258535232053986E-01    0.0000000000000000E+00    0.0000000000000000E+00   -0.1968651827969354E+00    0.3045078343244909E+00    0.0000000000000000E+00    0.0000000000000000E+00    0.0000000000000000E+00    0.0000000000000000E+00    0.0000000000000000E+00
 -0.4495   0.4531    0.5482776854156002E-01    0.0000000000000000E+00    0.0000000000000000E+00   -0.1357594004325514E+00    0.3027914240019836E+00    0.0000000000000000E+00    0.0000000000000000E+00    0.0000000000000000E+00    0.0000000000000000E+00    0.0000000000000000E+00
 -0.4520   0.4325    0.5582933691914693E-01    0.0000000000000000E+00    0.0000000000000000E+00   -0.7449750506106294E-01    0.2282185653221256E+00    0.0000000000000000E+00    0.0000000000000000E+00    0.0000000000000000E+00    0.0000000000000000E+00    0.0000000000000000E+00
 -0.4546   0.4102    0.5545695534334637E-01    0.0000000000000000E+00    0.0000000000000000E+00   -0.1588738561654443E-01    0.6724281713341769E-01    0.0000000000000000E+00    0.0000000000000000E+00    0.0000000000000000E+00    0.0000000000000000E+00    0.0000000000000000E+00
 -0.4575   0.3865    0.5367702374828557E-01    0.0000000000000000E+00    0.0000000000000000E+00    0.3708466012192133E-01   -0.1856728224019753E+00    0.0000000000000000E+00    0.0000000000000000E+00    0.0000000000000000E+00    0.0000000000000000E+00    0.0000000000000000E+00
 -0.4605   0.3614    0.5055904873784967E-01    0.0000000000000000E+00    0.0000000000000000E+00    0.8182683840880869E-01   -0.5309617821294813E+00    0.0000000000000000E+00    0.0000000000000000E+00    0.0000000000000000E+00    0.0000000000000000E+00    0.0000000000000000E+00
 -0.4636   0.3350    0.4627105082896266E-01    0.0000000000000000E+00    0.0000000000000000E+00    0.1168228925738228E+00   -0.9683759220257863E+00    0.0000000000000000E+00    0.0000000000000000E+00    0.0000000000000000E+00    0.0000000000000000E+00    0.0000000000000000E+00
 -0.4669   0.3074    0.4106442388054837E-01    0.0000000000000000E+00    0.0000000000000000E+00    0.1420881666890662E+00   -0.1499890348099803E+01    0.0000000000000000E+00    0.0000000000000000E+00    0.0000000000000000E+00    0.0000000000000000E+00    0.0000000000000000E+00
 -0.4703   0.2788    0.3524958410850384E-01    0.0000000000000000E+00    0.0000000000000000E+00    0.1590993950224041E+00   -0.2129129142123618E+01    0.0000000000000000E+00    0.0000000000000000E+00    0.0000000000000000E+00    0.0000000000000000E+00    0.0000000000000000E+00
 -0.4738   0.2492    0.2917164512741309E-01    0.0000000000000000E+00    0.0000000000000000E+00    0.1701959438031951E+00   -0.2857702591330213E+01    0.0000000000000000E+00    0.0000000000000000E+00    0.0000000000000000E+00    0.0000000000000000E+00    0.0000000000000000E+00
 -0.4775   0.2188    0.2319438654893392E-01    0.0000000000000000E+00    0.0000000000000000E+00    0.1777893395457720E+00   -0.3680333063552109E+01    0.0000000000000000E+00    0.0000000000000000E+00    0.0000000000000000E+00    0.0000000000000000E+00    0.0000000000000000E+00
 -0.4812   0.1877    0.1769140873086335E-01    0.0000000000000000E+00    0.0000000000000000E+00    0.1837898495835989E+00   -0.4581012819013030E+01    0.0000000000000000E+00    0.0000000000000000E+00    0.0000000000000000E+00    0.0000000000000000E+00    0.0000000000000000E+00
 -0.4849   0.1560    0.1303478212076789E-01    0.0000000000000000E+00    0.0000000000000000E+00    0.1894290691279497E+00   -0.5531749160901193E+01    0.0000000000000000E+00    0.0000000000000000E+00    0.0000000000000000E+00    0.0000000000000000E+00    0.0000000000000000E+00
 -0.4888   0.1240    0.9573510832527950E-02    0.0000000000000000E+00    0.0000000000000000E+00    0.1953794437014004E+00   -0.6494175608910291E+01    0.0000000000000000E+00    0.0000000000000000E+00    0.0000000000000000E+00    0.0000000000000000E+00    0.0000000000000000E+00
 -0.4926   0.0916    0.7601706191416749E-02    0.0000000000000000E+00    0.0000000000000000E+00    0.2019688375698186E+00   -0.7423014555495871E+01    0.0000000000000000E+00    0.0000000000000000E+00    0.0000000000000000E+00    0.0000000000000000E+00    0.0000000000000000E+00
 -0.4965   0.0592    0.7322817527300245E-02    0.0000000000000000E+00    0.0000000000000000E+00    0.2093538284093590E+00   -0.8269952286906340E+01    0.0000000000000000E+00    0.0000000000000000E+00    0.0000000000000000E+00    0.0000000000000000E+00    0.0000000000000000E+00
 -0.5004   0.0267    0.8816890597206516E-02    0.0000000000000000E+00    0.0000000000000000E+00    0.2176173565698762E+00   -0.8986891547133423E+01    0.0000000000000000E+00    0.0000000000000000E+00    0.0000000000000000E+00    0.0000000000000000E+00    0.0000000000000000E+00
 -0.5042  -0.0056    0.1201564957548011E-01    0.0000000000000000E+00    0.0000000000000000E+00    0.2268106413612590E+00   -0.9528444682505965E+01    0.0000000000000000E+00    0.0000000000000000E+00    0.0000000000000000E+00    0.0000000000000000E+00    0.0000000000000000E+00
 -0.5080  -0.0377    0.1668804922652923E-01    0.0000000000000000E+00    0.0000000000000000E+00    0.2369664838859410E+00   -0.9854256853890483E+01    0.0000000000000000E+00    0.0000000000000000E+00    0.0000000000000000E+00    0.0000000000000000E+00    0.0000000000000000E+00
 -0.5118  -0.0693    0.2243961091272481E-01    0.0000000000000000E+00    0.0000000000000000E+00    0.2481009513287207E+00   -0.9932035004275901E+01    0.0000000000000000E+00    0.0000000000000000E+00    0.0000000000000000E+00    0.0000000000000000E+00    0.0000000000000000E+00
 -0.5155  -0.1004    0.2873065943681643E-01    0.0000000000000000E+00    0.0000000000000000E+00    0.2602112055001372E+00   -0.9741776882284686E+01    0.0000000000000000E+00    0.0000000000000000E+00    0.0000000000000000E+00    0.0000000000000000E+00    0.0000000000000000E+00
 -0.5191  -0.1308    0.3491937414395295E-01    0.0000000000000000E+00    0.0000000000000000E+00    0.2732726046602987E+00   -0.9280853887512524E+01    0.0000000000000000E+00    0.0000000000000000E+00    0.0000000000000000E+00    0.0000000000000000E+00    0.0000000000000000E+00
 -0.5227  -0.1604    0.4033176488655503E-01    0.0000000000000000E+00    0.0000000000000000E+00    0.2872364531955835E+00   -0.8568533052546993E+01    0.0000000000000000E+00    0.0000000000000000E+00    0.0000000000000000E+00    0.0000000000000000E+00    0.0000000000000000E+00
 -0.5261  -0.1891    0.4435196614474645E-01    0.0000000000000000E+00    0.0000000000000000E+00    0.3020290505230696E+00   -0.7647834979568219E+01    0.0000000000000000E+00    0.0000000000000000E+00    0.0000000000000000E+00    0.0000000000000000E+00    0.0000000000000000E+00
 -0.5294  -0.2167    0.4651496272180677E-01    0.0000000000000000E+00    0.0000000000000000E+00    0.3175520790889517E+00   -0.6582797264254570E+01    0.0000000000000000E+00    0.0000000000000000E+00    0.0000000000000000E+00    0.0000000000000000E+00    0.0000000000000000E+00
 -0.5325  -0.2431    0.4657690300439835E-01    0.0000000000000000E+00    0.0000000000000000E+00    0.3336836387786574E+00   -0.5450589732268263E+01    0.0000000000000000E+00    0.0000000000000000E+00    0.0000000000000000E+00    0.0000000000000000E+00    0.0000000000000000E+00
 -0.5355  -0.2682    0.4454134355983381E-01    0.0000000000000000E+00    0.0000000000000000E+00    0.3502785773709384E+00   -0.4330000220394703E+01    0.0000000000000000E+00    0.0000000000000000E+00    0.0000000000000000E+00    0.0000000000000000E+00    0.0000000000000000E+00
 -0.5383  -0.2919    0.4063426785375662E-01    0.0000000000000000E+00    0.0000000000000000E+00    0.3671666525774209E+00   -0.3289552278672371E+01    0.0000000000000000E+00    0.0000000000000000E+00    0.0000000000000000E+00    0.0000000000000000E+00    0.0000000000000000E+00
 -0.5410  -0.3141    0.3523929474123384E-01    0.0000000000000000E+00    0.0000000000000000E+00    0.3841479736473742E+00   -0.2378782607668195E+01    0.0000000000000000E+00    0.0000000000000000E+00    0.0000000000000000E+00    0.0000000000000000E+00    0.0000000000000000E+00
 -0.5434  -0.3347    0.2881710130123753E-01    0.0000000000000000E+00    0.0000000000000000E+00    0.4009871860127898E+00   -0.1624827544997402E+01    0.0000000000000000E+00    0.0000000000000000E+00    0.0000000000000000E+00    0.0000000000000000E+00    0.0000000000000000E+00
 -0.5457  -0.3536    0.2183356895710001E-01    0.0000000000000000E+00    0.0000000000000000E+00    0.4174102228146293E+00   -0.1034258519028480E+01    0.0000000000000000E+00    0.0000000000000000E+00    0.0000000000000000E+00    0.0000000000000000E+00    0.0000000000000000E+00
 -0.5477  -0.3708    0.1471160445211918E-01    0.0000000000000000E+00    0.0000000000000000E+00    0.4331085964911831E+00   -0.5982946424759304E+00    0.0000000000000000E+00    0.0000000000000000E+00    0.0000000000000000E+00    0.0000000000000000E+00    0.0000000000000000E+00
 -0.5496  -0.3861    0.7809218870407454E-02    0.0000000000000000E+00    0.0000000000000000E+00    0.4477546357745594E+00   -0.2988705193940784E+00    0.0000000000000000E+00    0.0000000000000000E+00    0.0000000000000000E+00    0.0000000000000000E+00    0.0000000000000000E+00
 -0.5512  -0.3995    0.1416962751056800E-02    0.0000000000000000E+00    0.0000000000000000E+00    0.4610266787742547E+00   -0.1133894238478108E+00    0.0000000000000000E+00    0.0000000000000000E+00    0.0000000000000000E+00    0.0000000000000000E+00    0.0000000000000000E+00
 -0.5525  -0.4110   -0.4235808730718689E-02    0.0000000000000000E+00    0.0000000000000000E+00    0.4726379709327632E+00   -0.1717450995281100E-01    0.0000000000000000E+00    0.0000000000000000E+00    0.0000000000000000E+00    0.0000000000000000E+00    0.0000000000000000E+00
 -0.5536  -0.4204   -0.8976391805620603E-02    0.0000000000000000E+00    0.0000000000000000E+00    0.4823600194483252E+00    0.1619667545567988E-01    0.0000000000000000E+00    0.0000000000000000E+00    0.0000000000000000E+00    0.0000000000000000E+00    0.0000000000000000E+00
 -0.5545  -0.4278   -0.1269078696981082E-01    0.0000000000000000E+00    0.0000000000000000E+00    0.4900326641922508E+00    0.1446689883334807E-01    0.0000000000000000E+00    0.0000000000000000E+00    0.0000000000000000E+00    0.0000000000000000E+00    0.0000000000000000E+00
 -0.5552  -0.4331   -0.1533044052861861E-01    0.0000000000000000E+00    0.0000000000000000E+00    0.4955587848711355E+00    0.3898387537110469E-02    0.0000000000000000E+00    0.0000000000000000E+00    0.0000000000000000E+00    0.0000000000000000E+00    0.0000000000000000E+00
 -0.5555  -0.4362   -0.1690859578601825E-01    0.0000000000000000E+00    0.0000000000000000E+00    0.4988883105129286E+00   -0.1291015906879994E-03    0.0000000000000000E+00    0.0000000000000000E+00    0.0000000000000000E+00    0.0000000000000000E+00    0.0000000000000000E+00
 -0.5557  -0.4373   -0.1743735073199934E-01    0.0000000000000000E+00    0.0000000000000000E+00    0.5000000000000000E+00    0.0000000000000000E+00    0.0000000000000000E+00    0.0000000000000000E+00    0.0000000000000000E+00    0.0000000000000000E+00    0.0000000000000000E+00
 -0.4362   0.5555    0.2452807970151578E-01    0.0000000000000000E+00    0.0000000000000000E+00   -0.5000000000000000E+00   -0.2134199200236433E-03    0.0000000000000000E+00    0.0000000000000000E+00    0.0000000000000000E+00    0.0000000000000000E+00    0.0000000000000000E+00
 -0.4364   0.5545    0.2505513689979881E-01    0.2737495414106687E-06   -0.2738442820638823E-06   -0.4959910272456001E+00   -0.5374257906375319E-03   -0.1905454979839117E-09   -0.1000254142209146E-08   -0.1013986868103091E-12   -0.9826341129670624E-13    0.9035188938168182E-11
 -0.4368   0.5513    0.2661968820231921E-01    0.3676127838421753E-05   -0.7400398950853850E-06   -0.4839829856645152E+00   -0.2599545530855948E-02   -0.2092883391577234E-08   -0.1001091264572762E-08   -0.2491184342146013E-12   -0.1473610729968433E-12    0.3502186258011464E-10
 -0.4374   0.5460    0.2916959677256044E-01    0.6813550311634236E-05    0.8022887869368290E-07   -0.4640425523277388E+00   -0.4050893119338322E-02   -0.4095683895544455E-08   -0.1002632325417235E-08   -0.2801023302190231E-12   -0.1354827708355266E-12    0.7932825663720111E-10
 -0.4383   0.5386    0.3257997740248122E-01   -0.4016866685161837E-05    0.1427630371038344E-05   -0.4363127788819885E+00    0.6347040442918980E-02    0.1690829653499578E-08   -0.1005295633630526E-08   -0.2002044363624833E-13   -0.1505445074156953E-12    0.1404650024766640E-09
 -0.4394   0.5292    0.3662564891651366E-01   -0.4079919164912470E-04    0.2642486203255688E-05   -0.4010542146801951E+00    0.3970643421624799E-01    0.2152834712834221E-07   -0.1009091850877331E-08    0.8071911195006720E-12   -0.2249971042811438E-12    0.2171283465524088E-09
 -0.4408   0.5177    0.4100328019789859E-01   -0.1051654840517615E-03    0.3268911293490191E-05   -0.3586910273398962E+00    0.9777623366237492E-01    0.5639078457424382E-07   -0.1013369277380605E-08    0.2340867517186540E-11   -0.2088901968066992E-12    0.3088294307784789E-09
 -0.4424   0.5043    0.4536379747029309E-01   -0.1869303237154512E-03    0.3160966653909401E-05   -0.3098620210263998E+00    0.1715240296572755E+00    0.1006322132504249E-06   -0.1017312829462713E-08    0.4557148061690164E-11   -0.2395826592671568E-12    0.4090898661490705E-09
 -0.4442   0.4890    0.4934571860349916E-01   -0.2661261872818227E-03    0.2306352499296567E-05   -0.2554870699350063E+00    0.2427046546858193E+00    0.1435689318484892E-06   -0.1020143100202708E-08    0.7268016050110404E-11   -0.2217601102749711E-12    0.5093355043284120E-09
 -0.4462   0.4719    0.5260625987460678E-01   -0.3170131229351629E-03    0.8403406291684289E-06   -0.1968592852717107E+00    0.2876847345696490E+00    0.1712792370325488E-06   -0.1021342434020731E-08    0.1018626155646629E-10   -0.2127135273477521E-12    0.5927870069810659E-09
 -0.4485   0.4529    0.5485022864280386E-01   -0.3129917902848382E-03   -0.1046062654700063E-05   -0.1357520498422050E+00    0.2818841853830464E+00    0.1695275164061435E-06   -0.1020521783832301E-08    0.1302814106596273E-10   -0.2080471211973745E-12    0.6339509056596526E-09
 -0.4509   0.4323    0.5585421791147151E-01   -0.2316753762517090E-03   -0.3104534945092733E-05   -0.7448867849814490E-01    0.2045476308718102E+00    0.1262564744336837E-06   -0.1017005930858961E-08    0.1557677598018614E-10   -0.1698207546807495E-12    0.5997460653106579E-09
 -0.4536   0.4101    0.5548438363604527E-01   -0.5854682856073879E-04   -0.5124176507471528E-05   -0.1587736848902040E-01    0.4208614675722816E-01    0.3373713144262237E-07   -0.1009215979883016E-08    0.1771004176642776E-10   -0.1571451302417870E-12    0.4527841435120195E-09
 -0.4564   0.3864    0.5370687753371966E-01    0.2124557642491114E-03   -0.6968868679824001E-05    0.3709519138720460E-01   -0.2112801296673442E+00   -0.1112844877887857E-06   -0.9942666256285149E-09    0.1937457139167265E-10   -0.9907352715998741E-13    0.1620734102480981E-09
 -0.4594   0.3613    0.5059145318565506E-01    0.5819353434397096E-03   -0.8631153013862891E-05    0.8183690095499208E-01   -0.5562541607873452E+00   -0.3090789204939767E-06   -0.9679000587126119E-09    0.2052436692823179E-10   -0.4556771626695877E-13   -0.2826827383284325E-09
 -0.4625   0.3349    0.4630669737630928E-01    0.1049657745448234E-02   -0.1018061532462883E-04    0.1168314802895843E+00   -0.9926408137510067E+00   -0.5595386269518280E-06   -0.9253630674221913E-09    0.2104749707854126E-10    0.3755329380794592E-13   -0.8583841762388467E-09
 -0.4658   0.3073    0.4110440273719076E-01    0.1617601322845685E-02   -0.1170538815740350E-04    0.1420946089938447E+00   -0.1522166144391174E+01   -0.8637269447818066E-06   -0.8627172205788458E-09    0.2075847133076181E-10    0.1169758734320681E-12   -0.1507840449721520E-08
 -0.4693   0.2786    0.3529493435421175E-01    0.2289353792844964E-02   -0.1322817328623831E-04    0.1591035704219974E+00   -0.2147903516381806E+01   -0.1223632797098956E-05   -0.7780622951480964E-09    0.1940644173137329E-10    0.2215519434578539E-12   -0.2153677250427144E-08
 -0.4728   0.2490    0.2922277800102603E-01    0.3066246766270266E-02   -0.1468720903208369E-04    0.1701982169085333E+00   -0.2870732754357226E+01   -0.1640024813257510E-05   -0.6722165601935615E-09    0.1670730914726803E-10    0.3205630205727061E-12   -0.2723505598128950E-08
 -0.4764   0.2186    0.2325070865669169E-01    0.3942226902400934E-02   -0.1593679217883375E-04    0.1777902987176989E+00   -0.3684619116725837E+01   -0.2109746258253811E-05   -0.5486703452683983E-09    0.1232847504639700E-10    0.4046901702636774E-12   -0.3170150497146251E-08
 -0.4801   0.1875    0.1775117975935638E-01    0.4899845327638834E-02   -0.1679751336033694E-04    0.1837900419702947E+00   -0.4572973770696423E+01   -0.2623503568614992E-05   -0.4132045677840424E-09    0.5956717757937824E-11    0.4926059560261820E-12   -0.3478792168719845E-08
 -0.4839   0.1559    0.1309527777134467E-01    0.5909007086724165E-02   -0.1709763277628799E-04    0.1894288684191380E+00   -0.5507564452540181E+01   -0.3165218120945244E-05   -0.2734720366825982E-09   -0.2612660088274765E-11    0.5702244232352882E-12   -0.3659777103766360E-08
 -0.4877   0.1239    0.9631308018793128E-02    0.6928748106507262E-02   -0.1671545569933652E-04    0.1953790502272228E+00   -0.6450229184338701E+01   -0.3712938241897213E-05   -0.1382706518726629E-09   -0.1330538457189334E-10    0.6154243781253399E-12   -0.3736282413232400E-08
 -0.4916   0.0915    0.7653026272326526E-02    0.7910949659949517E-02   -0.1558349309546565E-04    0.2019683373640335E+00   -0.7356349684748971E+01   -0.4240848444211349E-05   -0.1708367475261596E-10   -0.2576716617852526E-10    0.6122741202929660E-12   -0.3733550572003475E-08
 -0.4954   0.0590    0.7363761171954426E-02    0.8804459333886594E-02   -0.1368326167873058E-04    0.2093532502173032E+00   -0.8178675915581525E+01   -0.4721464748037508E-05    0.8106066165525228E-10   -0.3931646674892875E-10    0.5838732275442737E-12   -0.3673428485007069E-08
 -0.4993   0.0266    0.8843608313131374E-02    0.9558534268825162E-02   -0.1102353354295225E-04    0.2176167062546536E+00   -0.8870507433737023E+01   -0.5127493262146531E-05    0.1486222429847306E-09   -0.5302341898882901E-10    0.5289796378704636E-12   -0.3572591949704829E-08
 -0.5031  -0.0058    0.1202442645687170E-01    0.1012547063485093E-01   -0.7634513986005296E-05    0.2268099177589533E+00   -0.9388109507463893E+01   -0.5433242824264900E-05    0.1804858710402479E-09   -0.6587014267367408E-10    0.4191647029472279E-12   -0.3443098867648986E-08
 -0.5070  -0.0378    0.1667545363921672E-01    0.1046304983989317E-01   -0.3571327977941177E-05    0.2369656849779211E+00   -0.9692965487591980E+01   -0.5615936937773651E-05    0.1749409237264410E-09   -0.7681366653855548E-10    0.2562030448904906E-12   -0.3293413270398504E-08
 -0.5107  -0.0695    0.2240272176717566E-01    0.1053771780264229E-01    0.1060759134395298E-05    0.2481000764546508E+00   -0.9754680030298550E+01   -0.5657438495939458E-05    0.1339976627920403E-09   -0.8487516245381244E-10    0.6322893597587864E-13   -0.3129449631725234E-08
 -0.5144  -0.1005    0.2866747289481674E-01    0.1032900664760057E-01    0.6078501063447066E-05    0.2602102560097545E+00   -0.9555020584393528E+01   -0.5546616675513407E-05    0.6359142205869528E-10   -0.8927497630040193E-10   -0.1351037337560257E-12   -0.2955081226593825E-08
 -0.5181  -0.1309    0.3482927782726216E-01    0.9834819043631008E-02    0.1119867957194670E-04    0.2732715836957029E+00   -0.9092694548071746E+01   -0.5282229812506642E-05   -0.2696334128193811E-10   -0.8950851171363183E-10   -0.3702732565002975E-12   -0.2772904158024336E-08
 -0.5216  -0.1605    0.4021601593884132E-01    0.9076088033685870E-02    0.1604489051734068E-04    0.2872353647362478E+00   -0.8387547500251461E+01   -0.4875417388583944E-05   -0.1260470929020929E-09   -0.8543915575032202E-10   -0.5829225990794384E-12   -0.2584647848177801E-08
 -0.5250  -0.1892    0.4421391123384791E-01    0.8098619972539847E-02    0.2019259495745877E-04    0.3020278978639456E+00   -0.7482130152145820E+01   -0.4350755990018705E-05   -0.2214636113384572E-09   -0.7743344854205247E-10   -0.8093942183151626E-12   -0.2391223745054627E-08
 -0.5283  -0.2168    0.4635990359014137E-01    0.6970131222374212E-02    0.2324807374742317E-04    0.3175508632401350E+00   -0.6438919736646029E+01   -0.3744625488351367E-05   -0.3025402914302866E-09   -0.6633421589796740E-10   -0.9533068778821985E-12   -0.2193719487314505E-08
 -0.5314  -0.2432    0.4641147450641803E-01    0.5771932326933277E-02    0.2494127805292474E-04    0.3336823576728464E+00   -0.5332643848147587E+01   -0.3100800495561052E-05   -0.3621209651583079E-09   -0.5340861086722271E-10   -0.1093694579346050E-11   -0.1991754849592353E-08
 -0.5344  -0.2683    0.4437260808488328E-01    0.4586866714742401E-02    0.2518974306416410E-04    0.3502772269674396E+00   -0.4239291343702084E+01   -0.2463868885842477E-05   -0.3975725165750177E-09   -0.4007819076612407E-10   -0.1176628239285549E-11   -0.1786747187704218E-08
 -0.5373  -0.2920    0.4046870177474702E-01    0.3486905294970275E-02    0.2411533896046259E-04    0.3671652306791201E+00   -0.3224783966984317E+01   -0.1872629113816672E-05   -0.4106905232559299E-09   -0.2766956108679608E-10   -0.1219552236975119E-11   -0.1579608704255220E-08
 -0.5399  -0.3142    0.3508205414998987E-01    0.2524058268475391E-02    0.2199238082466975E-04    0.3841464862918214E+00   -0.2336762470551684E+01   -0.1355069144686104E-05   -0.4064650144242066E-09   -0.1716617126223952E-10   -0.1214389699910612E-11   -0.1372676357996871E-08
 -0.5424  -0.3348    0.2867165062147587E-01    0.1726828950294694E-02    0.1916999568156614E-04    0.4009856548002295E+00   -0.1601325370925717E+01   -0.9265833905739987E-06   -0.3912483045875881E-09   -0.9076163431931406E-11   -0.1189479070795585E-11   -0.1169115505794682E-08
 -0.5446  -0.3538    0.2170180262355225E-01    0.1102134486133634E-02    0.1597448276732457E-04    0.4174086900954292E+00   -0.1024842671703861E+01   -0.5908470267352413E-06   -0.3711106387471741E-09   -0.3442416490750944E-11   -0.1130734395005106E-11   -0.9715325557935195E-09
 -0.5467  -0.3709    0.1459420236548586E-01    0.6407463559355311E-03    0.1266047906049750E-04    0.4331071249243782E+00   -0.5988325016276309E+00   -0.3429490627639730E-06   -0.3507093886134793E-09    0.1760017912660894E-13   -0.1091349233206529E-11   -0.7839516345115038E-09
 -0.5485  -0.3862    0.7706155491686828E-02    0.3236086858813101E-03    0.9377451135810898E-05    0.4477533001126827E+00   -0.3057903607563952E+00   -0.1725659241263695E-06   -0.3330205555762689E-09    0.1789813089403403E-11   -0.1064613674994774E-11   -0.6105543067652652E-09
 -0.5501  -0.3996    0.1327771529504480E-02    0.1267919921495826E-03    0.6224040835678989E-05    0.4610255506723897E+00   -0.1235695934708899E+00   -0.6693431207643161E-07   -0.3192774464949588E-09    0.2399674209341285E-11   -0.1022033152553448E-11   -0.4546334047075828E-09
 -0.5515  -0.4111   -0.4312073902675519E-02    0.2403559610915124E-04    0.3294168898066172E-05    0.4726371009712631E+00   -0.2783763190867204E-01   -0.1185184317095215E-07   -0.3096252247647424E-09    0.2341800364735747E-11   -0.9902512837500765E-12   -0.3185508150663208E-09
 -0.5526  -0.4205   -0.9041769885498324E-02   -0.1280105189611045E-04    0.8372118140908705E-06    0.4823594228116249E+00    0.7644019806097313E-02    0.7616844519030491E-08   -0.3031582157617813E-09    0.2004341137507026E-11   -0.9928264807501641E-12   -0.2049252790028988E-09
 -0.5535  -0.4279   -0.1274943831352751E-01   -0.1313949463733620E-04   -0.7736459779051990E-06    0.4900323160939890E+00    0.9970025493899925E-02    0.7496088119376831E-08   -0.2987287769581903E-09    0.1659240453366628E-11   -0.9674205880827458E-12   -0.1159557723277860E-09
 -0.5541  -0.4332   -0.1538927064178210E-01   -0.3968748275748476E-05   -0.1058241165761032E-05    0.4955586281379284E+00    0.3618229418763956E-02    0.2108628290454452E-08   -0.2942442500590559E-09    0.1384688587749427E-11   -0.1034216982886971E-11   -0.5169025320619913E-10
 -0.5545  -0.4364   -0.1696971680464899E-01   -0.1093564042426402E-06   -0.1096317242245238E-06    0.4988882712326140E+00    0.5280626012758173E-03    0.9508848572358458E-10   -0.2895045822536892E-09    0.7228453946517277E-12   -0.7148765086839592E-12   -0.1338855507579742E-10
 -0.5546  -0.4374   -0.1749854290006749E-01    0.0000000000000000E+00    0.0000000000000000E+00    0.5000000000000000E+00   -0.1285255186431894E-03    0.0000000000000000E+00    0.0000000000000000E+00    0.0000000000000000E+00    0.0000000000000000E+00    0.0000000000000000E+00
 -0.4331   0.5552    0.2471247144106328E-01    0.0000000000000000E+00    0.0000000000000000E+00   -0.5000000000000000E+00   -0.4315364479284127E-02    0.0000000000000000E+00    0.0000000000000000E+00    0.0000000000000000E+00    0.0000000000000000E+00    0.0000000000000000E+00
 -0.4332   0.5541    0.2523919743340130E-01    0.7398129475646368E-06   -0.3676061344866870E-05   -0.4959897473198052E+00   -0.2599267371070717E-02   -0.2092872480267780E-08   -0.1000920511187373E-08   -0.1670101502839610E-12   -0.1609409220476588E-12    0.8562625326662132E-11
 -0.4336   0.5509    0.2680146604457270E-01    0.6073609191048124E-05   -0.6074416313484439E-05   -0.4839778834500878E+00    0.1418828635038311E-02   -0.2052931593729179E-07   -0.1001307813140034E-08   -0.5382016447091909E-12   -0.4104489101028341E-12    0.3521612819065711E-10
 -0.4342   0.5456    0.2933929737997135E-01    0.5157070839623772E-05    0.3802309183531657E-05   -0.4640312069252041E+00    0.6819585667217432E-02   -0.3063763344799861E-07   -0.1002528648638701E-08   -0.5939068681293236E-12   -0.6864309468057606E-12    0.7914801279651495E-10
 -0.4351   0.5382    0.3272570151039587E-01   -0.4256902977289686E-04    0.2228041637103153E-04   -0.4362930897525329E+00    0.1912612363078624E-01    0.6730990465307969E-07   -0.1004895285039442E-08    0.4792676672193963E-12   -0.1080383178753141E-11    0.1400799164164024E-09
 -0.4362   0.5288    0.3674398953835974E-01   -0.1788854200765930E-03    0.3962619318495409E-04   -0.4010244573089333E+00    0.4712849135581241E-01    0.3685028374533877E-06   -0.1008347013525812E-08    0.3623904128169375E-11   -0.1490552473115692E-11    0.2173701635355130E-09
 -0.4376   0.5174    0.4109771373933890E-01   -0.4124328091002784E-03    0.4889836008238541E-04   -0.3586495763060833E+00    0.9379791427911587E-01    0.8900465733246134E-06   -0.1012376880243915E-08    0.9410345766514006E-11   -0.1831496759807649E-11    0.3088575471765775E-09
 -0.4392   0.5040    0.4544142546241092E-01   -0.7074266144519928E-03    0.4705253265190123E-04   -0.3098068907162026E+00    0.1524455779649579E+00    0.1550664309253964E-05   -0.1016182769875140E-08    0.1778557683074222E-10   -0.2015488470563653E-11    0.4093639316415931E-09
 -0.4410   0.4886    0.4941446396297799E-01   -0.9895982013331430E-03    0.3386749155307429E-04   -0.2554156422634131E+00    0.2074287342560487E+00    0.2186483921605326E-05   -0.1019023353546200E-08    0.2808692514677524E-10   -0.2030217140236434E-11    0.5097486113769811E-09