 title="result"
 variables="x","y","P","u","v","t","omega","psi","RES1","RES2","RES3","RES4"
zone,j= 49,i= 49,f=point
 -0.3709   0.6020    0.2542294925648663E-01    0.0000000000000000E+00    0.0000000000000000E+00   -0.5000000000000000E+00    0.0000000000000000E+00    0.0000000000000000E+00    0.0000000000000000E+00    0.0000000000000000E+00    0.0000000000000000E+00    0.0000000000000000E+00
 -0.3712   0.6010    0.2594008304528838E-01    0.0000000000000000E+00    0.0000000000000000E+00   -0.4956526560132548E+00   -0.2009855036324931E-04    0.0000000000000000E+00    0.0000000000000000E+00    0.0000000000000000E+00    0.0000000000000000E+00    0.0000000000000000E+00
 -0.3719   0.5978    0.2746279604814609E-01    0.0000000000000000E+00    0.0000000000000000E+00   -0.4826313441299133E+00   -0.4246420086085576E-02    0.0000000000000000E+00    0.0000000000000000E+00    0.0000000000000000E+00    0.0000000000000000E+00    0.0000000000000000E+00
 -0.3732   0.5927    0.2992920942016920E-01    0.0000000000000000E+00    0.0000000000000000E+00   -0.4610108121362503E+00   -0.1825759608862419E-01    0.0000000000000000E+00    0.0000000000000000E+00    0.0000000000000000E+00    0.0000000000000000E+00    0.0000000000000000E+00
 -0.3749   0.5854    0.3323436385063142E-01    0.0000000000000000E+00    0.0000000000000000E+00   -0.4309576840246170E+00   -0.3865778531071435E-01    0.0000000000000000E+00    0.0000000000000000E+00    0.0000000000000000E+00    0.0000000000000000E+00    0.0000000000000000E+00
 -0.3771   0.5762    0.3719234798272480E-01    0.0000000000000000E+00    0.0000000000000000E+00   -0.3927925027630446E+00   -0.5720139466007214E-01    0.0000000000000000E+00    0.0000000000000000E+00    0.0000000000000000E+00    0.0000000000000000E+00    0.0000000000000000E+00
 -0.3797   0.5650    0.4153894846054069E-01    0.0000000000000000E+00    0.0000000000000000E+00   -0.3470714339226659E+00   -0.6718338587239918E-01    0.0000000000000000E+00    0.0000000000000000E+00    0.0000000000000000E+00    0.0000000000000000E+00    0.0000000000000000E+00
 -0.3829   0.5518    0.4594753912028227E-01    0.0000000000000000E+00    0.0000000000000000E+00   -0.2946793561550409E+00   -0.6616085694898374E-01    0.0000000000000000E+00    0.0000000000000000E+00    0.0000000000000000E+00    0.0000000000000000E+00    0.0000000000000000E+00
 -0.3864   0.5368    0.5005184693128161E-01    0.0000000000000000E+00    0.0000000000000000E+00   -0.2369214319684099E+00   -0.5744257881557183E-01    0.0000000000000000E+00    0.0000000000000000E+00    0.0000000000000000E+00    0.0000000000000000E+00    0.0000000000000000E+00
 -0.3904   0.5200    0.5347672901410516E-01    0.0000000000000000E+00    0.0000000000000000E+00   -0.1755914957479197E+00   -0.5095092756870512E-01    0.0000000000000000E+00    0.0000000000000000E+00    0.0000000000000000E+00    0.0000000000000000E+00    0.0000000000000000E+00
 -0.3948   0.5015    0.5587785730269318E-01    0.0000000000000000E+00    0.0000000000000000E+00   -0.1129832410973561E+00   -0.6347093149482737E-01    0.0000000000000000E+00    0.0000000000000000E+00    0.0000000000000000E+00    0.0000000000000000E+00    0.0000000000000000E+00
 -0.3996   0.4813    0.5698688593832363E-01    0.0000000000000000E+00    0.0000000000000000E+00   -0.5180012755060789E-01   -0.1168774916246811E+00    0.0000000000000000E+00    0.0000000000000000E+00    0.0000000000000000E+00    0.0000000000000000E+00    0.0000000000000000E+00
 -0.4048   0.4595    0.5665005252161574E-01    0.0000000000000000E+00    0.0000000000000000E+00    0.5078761429310677E-02   -0.2338233400199000E+00    0.0000000000000000E+00    0.0000000000000000E+00    0.0000000000000000E+00    0.0000000000000000E+00    0.0000000000000000E+00
 -0.4103   0.4363    0.5484616595118474E-01    0.0000000000000000E+00    0.0000000000000000E+00    0.5499320635754817E-01   -0.4326113462957865E+00    0.0000000000000000E+00    0.0000000000000000E+00    0.0000000000000000E+00    0.0000000000000000E+00    0.0000000000000000E+00
 -0.4161   0.4117    0.5167825368135557E-01    0.0000000000000000E+00    0.0000000000000000E+00    0.9600442482510761E-01   -0.7245992682107900E+00    0.0000000000000000E+00    0.0000000000000000E+00    0.0000000000000000E+00    0.0000000000000000E+00    0.0000000000000000E+00
 -0.4223   0.3858    0.4734679023622544E-01    0.0000000000000000E+00    0.0000000000000000E+00    0.1273499627317878E+00   -0.1115680549233190E+01    0.0000000000000000E+00    0.0000000000000000E+00    0.0000000000000000E+00    0.0000000000000000E+00    0.0000000000000000E+00
 -0.4287   0.3588    0.4211843516197369E-01    0.0000000000000000E+00    0.0000000000000000E+00    0.1496279097863311E+00   -0.1609637770920896E+01    0.0000000000000000E+00    0.0000000000000000E+00    0.0000000000000000E+00    0.0000000000000000E+00    0.0000000000000000E+00
 -0.4354   0.3307    0.3630039497691344E-01    0.0000000000000000E+00    0.0000000000000000E+00    0.1645617617640839E+00   -0.2209588447325487E+01    0.0000000000000000E+00    0.0000000000000000E+00    0.0000000000000000E+00    0.0000000000000000E+00    0.0000000000000000E+00
 -0.4423   0.3017    0.3022408226485058E-01    0.0000000000000000E+00    0.0000000000000000E+00    0.1744202771832712E+00   -0.2915990744828897E+01    0.0000000000000000E+00    0.0000000000000000E+00    0.0000000000000000E+00    0.0000000000000000E+00    0.0000000000000000E+00
 -0.4493   0.2719    0.2423741898483617E-01    0.0000000000000000E+00    0.0000000000000000E+00    0.1813745102761636E+00   -0.3722731054923140E+01    0.0000000000000000E+00    0.0000000000000000E+00    0.0000000000000000E+00    0.0000000000000000E+00    0.0000000000000000E+00
 -0.4566   0.2414    0.1870066647763990E-01    0.0000000000000000E+00    0.0000000000000000E+00    0.1870803655217151E+00   -0.4613837495054071E+01    0.0000000000000000E+00    0.0000000000000000E+00    0.0000000000000000E+00    0.0000000000000000E+00    0.0000000000000000E+00
 -0.4639   0.2104    0.1397761329391286E-01    0.0000000000000000E+00    0.0000000000000000E+00    0.1925853513620153E+00   -0.5562453883261065E+01    0.0000000000000000E+00    0.0000000000000000E+00    0.0000000000000000E+00    0.0000000000000000E+00    0.0000000000000000E+00
 -0.4714   0.1790    0.1041622333635625E-01    0.0000000000000000E+00    0.0000000000000000E+00    0.1984583287917761E+00   -0.6532285473109320E+01    0.0000000000000000E+00    0.0000000000000000E+00    0.0000000000000000E+00    0.0000000000000000E+00    0.0000000000000000E+00
 -0.4789   0.1473    0.8319419646512624E-02    0.0000000000000000E+00    0.0000000000000000E+00    0.2049792314700223E+00   -0.7480624657883673E+01    0.0000000000000000E+00    0.0000000000000000E+00    0.0000000000000000E+00    0.0000000000000000E+00    0.0000000000000000E+00
 -0.4865   0.1155    0.7911743491282552E-02    0.0000000000000000E+00    0.0000000000000000E+00    0.2122855873657166E+00   -0.8361669472783943E+01    0.0000000000000000E+00    0.0000000000000000E+00    0.0000000000000000E+00    0.0000000000000000E+00    0.0000000000000000E+00
 -0.4940   0.0837    0.9308100111983981E-02    0.0000000000000000E+00    0.0000000000000000E+00    0.2204535687803205E+00   -0.9129183064355217E+01    0.0000000000000000E+00    0.0000000000000000E+00    0.0000000000000000E+00    0.0000000000000000E+00    0.0000000000000000E+00
 -0.5015   0.0520    0.1248825717457245E-01    0.0000000000000000E+00    0.0000000000000000E+00    0.2295323528762995E+00   -0.9738326479979989E+01    0.0000000000000000E+00    0.0000000000000000E+00    0.0000000000000000E+00    0.0000000000000000E+00    0.0000000000000000E+00
 -0.5090   0.0206    0.1727876287457326E-01    0.0000000000000000E+00    0.0000000000000000E+00    0.2395547173532287E+00   -0.1014726016026587E+02    0.0000000000000000E+00    0.0000000000000000E+00    0.0000000000000000E+00    0.0000000000000000E+00    0.0000000000000000E+00
 -0.5164  -0.0104    0.2334459723544841E-01    0.0000000000000000E+00    0.0000000000000000E+00    0.2505379256146317E+00   -0.1031948504231328E+02    0.0000000000000000E+00    0.0000000000000000E+00    0.0000000000000000E+00    0.0000000000000000E+00    0.0000000000000000E+00
 -0.5236  -0.0408    0.3019565359993765E-01    0.0000000000000000E+00    0.0000000000000000E+00    0.2624812815720901E+00   -0.1022769438900626E+02    0.0000000000000000E+00    0.0000000000000000E+00    0.0000000000000000E+00    0.0000000000000000E+00    0.0000000000000000E+00
 -0.5307  -0.0706    0.3721555034575520E-01    0.0000000000000000E+00    0.0000000000000000E+00    0.2753629652235965E+00   -0.9859151577844024E+01    0.0000000000000000E+00    0.0000000000000000E+00    0.0000000000000000E+00    0.0000000000000000E+00    0.0000000000000000E+00
 -0.5376  -0.0996    0.4371889304449841E-01    0.0000000000000000E+00    0.0000000000000000E+00    0.2891373899784119E+00   -0.9221497636946316E+01    0.0000000000000000E+00    0.0000000000000000E+00    0.0000000000000000E+00    0.0000000000000000E+00    0.0000000000000000E+00
 -0.5442  -0.1277    0.4903584005822890E-01    0.0000000000000000E+00    0.0000000000000000E+00    0.3037337939047580E+00   -0.8346856449506783E+01    0.0000000000000000E+00    0.0000000000000000E+00    0.0000000000000000E+00    0.0000000000000000E+00    0.0000000000000000E+00
 -0.5507  -0.1547    0.5261067726684655E-01    0.0000000000000000E+00    0.0000000000000000E+00    0.3190562916527625E+00   -0.7291784781216441E+01    0.0000000000000000E+00    0.0000000000000000E+00    0.0000000000000000E+00    0.0000000000000000E+00    0.0000000000000000E+00
 -0.5568  -0.1806    0.5408989173266068E-01    0.0000000000000000E+00    0.0000000000000000E+00    0.3349849305443611E+00   -0.6131533284457579E+01    0.0000000000000000E+00    0.0000000000000000E+00    0.0000000000000000E+00    0.0000000000000000E+00    0.0000000000000000E+00
 -0.5626  -0.2052    0.5337270212862636E-01    0.0000000000000000E+00    0.0000000000000000E+00    0.3513765524887074E+00   -0.4949194446217527E+01    0.0000000000000000E+00    0.0000000000000000E+00    0.0000000000000000E+00    0.0000000000000000E+00    0.0000000000000000E+00
 -0.5682  -0.2285    0.5060780663634004E-01    0.0000000000000000E+00    0.0000000000000000E+00    0.3680638985117394E+00   -0.3822616899457850E+01    0.0000000000000000E+00    0.0000000000000000E+00    0.0000000000000000E+00    0.0000000000000000E+00    0.0000000000000000E+00
 -0.5733  -0.2502    0.4613992315232238E-01    0.0000000000000000E+00    0.0000000000000000E+00    0.3848519585219290E+00   -0.2813126505207470E+01    0.0000000000000000E+00    0.0000000000000000E+00    0.0000000000000000E+00    0.0000000000000000E+00    0.0000000000000000E+00
 -0.5781  -0.2704    0.4042778332271619E-01    0.0000000000000000E+00    0.0000000000000000E+00    0.4015123495651255E+00   -0.1959265886955102E+01    0.0000000000000000E+00    0.0000000000000000E+00    0.0000000000000000E+00    0.0000000000000000E+00    0.0000000000000000E+00
 -0.5825  -0.2890    0.3396155822196308E-01    0.0000000000000000E+00    0.0000000000000000E+00    0.4177790137748595E+00   -0.1276551843641485E+01    0.0000000000000000E+00    0.0000000000000000E+00    0.0000000000000000E+00    0.0000000000000000E+00    0.0000000000000000E+00
 -0.5865  -0.3058    0.2720106603651188E-01    0.0000000000000000E+00    0.0000000000000000E+00    0.4333503082838607E+00   -0.7618481072045977E+00    0.0000000000000000E+00    0.0000000000000000E+00    0.0000000000000000E+00    0.0000000000000000E+00    0.0000000000000000E+00
 -0.5901  -0.3208    0.2054267102397954E-01    0.0000000000000000E+00    0.0000000000000000E+00    0.4479018156193849E+00   -0.3997187848073104E+00    0.0000000000000000E+00    0.0000000000000000E+00    0.0000000000000000E+00    0.0000000000000000E+00    0.0000000000000000E+00
 -0.5932  -0.3339    0.1431059920438186E-01    0.0000000000000000E+00    0.0000000000000000E+00    0.4611102114580612E+00   -0.1680144665090294E+00    0.0000000000000000E+00    0.0000000000000000E+00    0.0000000000000000E+00    0.0000000000000000E+00    0.0000000000000000E+00
 -0.5959  -0.3451    0.8761540524317201E-02    0.0000000000000000E+00    0.0000000000000000E+00    0.4726827980949679E+00   -0.4113623814200799E-01    0.0000000000000000E+00    0.0000000000000000E+00    0.0000000000000000E+00    0.0000000000000000E+00    0.0000000000000000E+00
 -0.5981  -0.3544    0.4090040931073319E-02    0.0000000000000000E+00    0.0000000000000000E+00    0.4823831778053833E+00    0.9323852973152030E-02    0.0000000000000000E+00    0.0000000000000000E+00    0.0000000000000000E+00    0.0000000000000000E+00    0.0000000000000000E+00
 -0.5998  -0.3616    0.4265305652357622E-03    0.0000000000000000E+00    0.0000000000000000E+00    0.4900440379106935E+00    0.1427810369899684E-01    0.0000000000000000E+00    0.0000000000000000E+00    0.0000000000000000E+00    0.0000000000000000E+00    0.0000000000000000E+00
 -0.6010  -0.3668   -0.2171243182916189E-02    0.0000000000000000E+00    0.0000000000000000E+00    0.4955635522445090E+00    0.4475790043070416E-02    0.0000000000000000E+00    0.0000000000000000E+00    0.0000000000000000E+00    0.0000000000000000E+00    0.0000000000000000E+00
 -0.6018  -0.3699   -0.3718930148696687E-02    0.0000000000000000E+00    0.0000000000000000E+00    0.4988894860970313E+00   -0.1011770692933515E-03    0.0000000000000000E+00    0.0000000000000000E+00    0.0000000000000000E+00    0.0000000000000000E+00    0.0000000000000000E+00
 -0.6020  -0.3709   -0.4236507350634135E-02    0.0000000000000000E+00    0.0000000000000000E+00    0.5000000000000000E+00    0.0000000000000000E+00    0.0000000000000000E+00    0.0000000000000000E+00    0.0000000000000000E+00    0.0000000000000000E+00    0.0000000000000000E+00
 -0.3699   0.6018    0.2554801045285592E-01    0.0000000000000000E+00    0.0000000000000000E+00   -0.5000000000000000E+00   -0.2026145121389166E-04    0.0000000000000000E+00    0.0000000000000000E+00    0.0000000000000000E+00    0.0000000000000000E+00    0.0000000000000000E+00
 -0.3701   0.6007    0.2606460802159220E-01    0.1840958336122006E-06   -0.1841834841022145E-06   -0.4956525506494726E+00   -0.5572698377537110E-03   -0.1228769844181864E-09   -0.1171115631337302E-08   -0.1590127226940019E-12   -0.1439794464208610E-12    0.8589616322905724E-11
 -0.3709   0.5976    0.2758706852908389E-01    0.4430707546460004E-05   -0.1154242905748758E-05   -0.4826309208750146E+00   -0.4208520519115353E-02   -0.2358504897157614E-08   -0.1172364338421217E-08   -0.3519686712222247E-12   -0.2431405771163853E-12    0.3372415714741894E-10
 -0.3721   0.5924    0.3005075619328726E-01    0.1805342790372233E-04   -0.1573883900117321E-05   -0.4610098506333081E+00   -0.1550966615929751E-01   -0.9958198923447509E-08   -0.1174291423215040E-08   -0.3399494227784849E-12   -0.2212709182547457E-12    0.7643547947355778E-10
 -0.3738   0.5852    0.3334759864467243E-01    0.3847057947121110E-04   -0.1356253910800549E-05   -0.4309559577502194E+00   -0.3327485145246382E-01   -0.2108303314711758E-07   -0.1177080035871803E-08    0.4981778878310195E-13   -0.2648931421433964E-12    0.1346226081999635E-09
 -0.3760   0.5759    0.3729349658734526E-01    0.5760073797279084E-04   -0.8140754298843599E-06   -0.3927897893787063E+00   -0.5044862566740613E-01   -0.3148401269077638E-07   -0.1180493750278441E-08    0.1061612603381334E-11   -0.2953783051484749E-12    0.2082036626438466E-09
 -0.3787   0.5647    0.4162592977274567E-01    0.6843654523362961E-04   -0.2192090411319640E-06   -0.3470675253977080E+00   -0.6072608070563042E-01   -0.3723457091416411E-07   -0.1183676834228941E-08    0.2763832565588764E-11   -0.3109823596553207E-12    0.2941584337223802E-09
 -0.3818   0.5516    0.4601953212421642E-01    0.6837146483986964E-04    0.1989905103485753E-06   -0.2946740729708557E+00   -0.6162539955620989E-01   -0.3703577239628683E-07   -0.1185761383125285E-08    0.5037990857825747E-11   -0.3026659868912707E-12    0.3860640834796314E-09
 -0.3854   0.5366    0.5010908975753722E-01    0.6083613697962338E-04    0.2989726146409714E-06   -0.2369146499172037E+00   -0.5627758078606811E-01   -0.3266933642250866E-07   -0.1186045696008851E-08    0.7619858737040186E-11   -0.3092031838902720E-12    0.4727411309635166E-09
 -0.3894   0.5198    0.5352048904378921E-01    0.5625637087416521E-04   -0.4109035915445271E-07   -0.1755831889973231E+00   -0.5421392405682882E-01   -0.2980808024019130E-07   -0.1184145233799373E-08    0.1019821553593925E-10   -0.2931969987976513E-12    0.5364441807431675E-09
 -0.3938   0.5012    0.5591028922204123E-01    0.7229770218521278E-04   -0.8834291457475456E-06   -0.1129735369345618E+00   -0.7166841555555649E-01   -0.3791687958740801E-07   -0.1179741755457861E-08    0.1250170800215500E-10   -0.2541630100827419E-12    0.5529803281945078E-09
 -0.3986   0.4810    0.5701070417279740E-01    0.1320119322456017E-03   -0.2207006434627297E-05   -0.5178936070627616E-01   -0.1298176226698078E+00   -0.6943529920304265E-07   -0.1172181685049623E-08    0.1437158725359211E-10   -0.2418811678728261E-12    0.4926243996061785E-09
 -0.4037   0.4593    0.5666802257893901E-01    0.2593207335326704E-03   -0.3875586611260649E-05    0.5090017457699988E-02   -0.2507091644122713E+00   -0.1371980133049075E-06   -0.1159967379961435E-08    0.1575117813956695E-10   -0.2006138311028138E-12    0.3253795149982253E-09
 -0.4093   0.4360    0.5486078653406280E-01    0.4736322174816391E-03   -0.5701460895459976E-05    0.5500416910075886E-01   -0.4522918740402683E+00   -0.2516494976340987E-06   -0.1140458798579158E-08    0.1665940302375546E-10   -0.1549559092151043E-12    0.2844845192750967E-10
 -0.4151   0.4114    0.5169174392828139E-01    0.7870687543666023E-03   -0.7529751903290227E-05    0.9601423285618846E-01   -0.7458634498354966E+00   -0.4192671071531940E-06   -0.1109918051564462E-08    0.1712198438585943E-10   -0.5929978730279117E-13   -0.4033279404902501E-09
 -0.4212   0.3855    0.4736128228635252E-01    0.1205946805780025E-02   -0.9305495253163674E-05    0.1273578978640152E+00   -0.1137328284481979E+01   -0.6434450809295939E-06   -0.1064169564968243E-08    0.1709610231159786E-10   -0.6082634396165076E-13   -0.9488629049148045E-09
 -0.4277   0.3585    0.4213595896696684E-01    0.1734234516730001E-02   -0.1103862548853552E-04    0.1496336179905918E+00   -0.1630321661726593E+01   -0.9263107822288811E-06   -0.9997998574873268E-09    0.1646138086952575E-10    0.8214956492835768E-13   -0.1559506572490488E-08
 -0.4343   0.3304    0.3632257475982746E-01    0.2375042371490316E-02   -0.1273435688743068E-04    0.1645653392760998E+00   -0.2227534076386825E+01   -0.1269577979388143E-05   -0.9150819338388239E-09    0.1504467384005892E-10    0.1504282809428048E-12   -0.2169660485995539E-08
 -0.4412   0.3014    0.3025167536986975E-01    0.3128523830058785E-02   -0.1433111916677616E-04    0.1744221634361411E+00   -0.2928794972617536E+01   -0.1673382715553331E-05   -0.8106097876270368E-09    0.1259536919206994E-10    0.2587374758888927E-12   -0.2715081107856898E-08
 -0.4483   0.2717    0.2427002477808186E-01    0.3987774794146711E-02   -0.1570308872934881E-04    0.1813752646422097E+00   -0.3727317527480836E+01   -0.2134097454892679E-05   -0.6894623691411361E-09    0.8846191140721160E-11    0.3618771948765698E-12   -0.3151329085702981E-08
 -0.4555   0.2412    0.1873668121494322E-01    0.4935412769939366E-02   -0.1668911526716662E-04    0.1870804693650007E+00   -0.4606599473038519E+01   -0.2642466512340497E-05   -0.5567724892241444E-09    0.3500980755299921E-11    0.4635458683566185E-12   -0.3460811593168156E-08
 -0.4629   0.2102    0.1401444490379654E-01    0.5942560254044897E-02   -0.1714058788385507E-04    0.1925851216625835E+00   -0.5539547644031567E+01   -0.3183055672437841E-05   -0.4193694905230139E-09   -0.3635862444451021E-11    0.5309919171025967E-12   -0.3649292381301128E-08
 -0.4703   0.1788    0.1045059637340130E-01    0.6970441257802667E-02   -0.1694686641297488E-04    0.1984579319225452E+00   -0.6490014629849725E+01   -0.3735096744606083E-05   -0.2852266478559073E-09   -0.1258014525884477E-10    0.6076389391651560E-12   -0.3735694255237870E-08
 -0.4779   0.1471    0.8347697893465752E-02    0.7973630297255929E-02   -0.1604774198001516E-04    0.2049787375093566E+00   -0.7415844888343083E+01   -0.4274219356265853E-05   -0.1628142204390670E-09   -0.2308706004150451E-10    0.6278449982133338E-12   -0.3742490452089686E-08
 -0.4854   0.1153    0.7930137236550509E-02    0.8903585988226709E-02   -0.1441849447048716E-04    0.2122850187175095E+00   -0.8272153190901799E+01   -0.4774357766525041E-05   -0.6037075006570802E-10   -0.3459485475865165E-10    0.6318556788897922E-12   -0.3690392599148273E-08
 -0.4930   0.0835    0.9312791127152838E-02    0.9711469073307669E-02   -0.1205603004131722E-04    0.2204529288694460E+00   -0.9013936263950567E+01   -0.5209246008363574E-05    0.1498928065002403E-10   -0.4637651374039820E-10    0.5657210810916524E-12   -0.3595244870042980E-08
 -0.5005   0.0518    0.1247543249616589E-01    0.1035008061600421E-01   -0.8963568234456102E-05    0.2295316393066920E+00   -0.9597852499674385E+01   -0.5553484555578798E-05    0.5834278199445819E-10   -0.5746381148696855E-10    0.4897540706316761E-12   -0.3469393386294761E-08
 -0.5080   0.0204    0.1724469710665539E-01    0.1077555606539107E-01   -0.5159208604121141E-05    0.2395539271052700E+00   -0.9983796228929494E+01   -0.5783419217879596E-05    0.6762611824695508E-10   -0.6689249154590016E-10    0.3497098444160684E-12   -0.3321410221510113E-08
 -0.5153  -0.0106    0.2328582041049741E-01    0.1094983655986740E-01   -0.6954405582511344E-06    0.2505370570361122E+00   -0.1013716072346395E+02   -0.5878508733228280E-05    0.4436166299755240E-10   -0.7373551769163100E-10    0.1847597595749928E-12   -0.3157143026177867E-08
 -0.5226  -0.0411    0.3010932400960235E-01    0.1084471416941963E-01    0.4301527641998220E-05    0.2624803351172619E+00   -0.1003255926258052E+02   -0.5823458153122131E-05   -0.6288978018909042E-11   -0.7722433803536433E-10   -0.2255487463465045E-13   -0.2981202753410406E-08
 -0.5296  -0.0709    0.3709996146853030E-01    0.1044744889291102E-01    0.9601738988858516E-05    0.2753619434535644E+00   -0.9658923018108148E+01   -0.5611304347217581E-05   -0.7582981811915523E-10   -0.7683431668681351E-10   -0.2285185929373768E-12   -0.2797093156051145E-08
 -0.5365  -0.0999    0.4357407379597067E-01    0.9766791611792128E-02    0.1485539439378681E-04    0.2891362968407725E+00   -0.9024966523425116E+01   -0.5246611797304088E-05   -0.1534184827789442E-09   -0.7245909428021946E-10   -0.4323486013646516E-12   -0.2606276713543187E-08
 -0.5432  -0.1280    0.4886398541321556E-01    0.8837183259690868E-02    0.1962383894495365E-04    0.3037326333299564E+00   -0.8162902785906251E+01   -0.4747827625348450E-05   -0.2275803850926295E-09   -0.6448119815871678E-10   -0.6357275816881724E-12   -0.2410228039720352E-08
 -0.5496  -0.1550    0.5241626241337310E-01    0.7718586137632088E-02    0.2344785305798742E-04    0.3190550658118416E+00   -0.7128205893312686E+01   -0.4147128075435841E-05   -0.2884075825382304E-09   -0.5378253398191646E-10   -0.8195805145660984E-12   -0.2210155437137873E-08
 -0.5558  -0.1809    0.5387924864803025E-01    0.6490385762166888E-02    0.2595304483951650E-04    0.3349836385662930E+00   -0.5993924536400968E+01   -0.3487242601372630E-05   -0.3292416131395193E-09   -0.4161088140719471E-10   -0.9292289160356404E-12   -0.2006482128016907E-08
 -0.5616  -0.2055    0.5315318380937831E-01    0.5239995449483141E-02    0.2693901618058725E-04    0.3513751907897329E+00   -0.4840282813046298E+01   -0.2815203296135237E-05   -0.3480194049609864E-09   -0.2938688181686189E-10   -0.1029606955249562E-11   -0.1800354703859752E-08
 -0.5671  -0.2287    0.5038667786987052E-01    0.4049183153478607E-02    0.2643011196848126E-04    0.3680624638338326E+00   -0.3742177702801619E+01   -0.2175095215353622E-05   -0.3469653245269377E-09   -0.1837605068111259E-10   -0.1055155962603749E-11   -0.1592857032037265E-08
 -0.5723  -0.2505    0.4592341773248533E-01    0.2982315013800280E-02    0.2464770660550020E-04    0.3848504540059756E+00   -0.2758546832364750E+01   -0.1601556977139454E-05   -0.3313817900640892E-09   -0.9465483952197928E-11   -0.1061456478268497E-11   -0.1386293300639774E-08
 -0.5771  -0.2707    0.4022048852414573E-01    0.2079847482994924E-02    0.2193715285629931E-04    0.4015107926732742E+00   -0.1926409768971029E+01   -0.1116438276895062E-05   -0.3076645882504891E-09   -0.3035627305081334E-11   -0.1023486850826316E-11   -0.1182529850082825E-08
 -0.5815  -0.2892    0.3376636348681341E-01    0.1358083161496378E-02    0.1865986799622246E-04    0.4177774430958706E+00   -0.1260728728166279E+01   -0.7284594635331324E-06   -0.2817426639212250E-09    0.9797301858682772E-12   -0.1002128935390090E-11   -0.9851024006940490E-09
 -0.5855  -0.3060    0.2701943859000913E-01    0.8137357567626623E-03    0.1511862083647409E-04    0.4333487852283088E+00   -0.7584739083667725E+00   -0.4359223639735598E-06   -0.2579115775114271E-09    0.2994210782092388E-11   -0.9556383462339113E-12   -0.7966473695997234E-09
 -0.5890  -0.3210    0.2037520551557994E-01    0.4305354293771856E-03    0.1150868911221332E-04    0.4479004178108404E+00   -0.4047221182403981E+00   -0.2299835355787710E-06   -0.2386012498689638E-09    0.3569897849553527E-11   -0.9121592370320286E-12   -0.6220561201558672E-09
 -0.5922  -0.3342    0.1415735202592293E-01    0.1850412567849848E-03    0.7952003023035917E-05    0.4611090175441805E+00   -0.1777854080375495E+00   -0.9815879146064041E-07   -0.2245408598638976E-09    0.3279574528614049E-11   -0.9053938154757191E-12   -0.4638033377496464E-09
 -0.5948  -0.3454    0.8622077305577997E-02    0.5000784097713245E-04    0.4558683183659190E-05    0.4726818677798920E+00   -0.5242367896347184E-01   -0.2569513575901265E-07   -0.2153360025014539E-09    0.2628022799378016E-11   -0.8781551874559312E-12   -0.3253059054769691E-09
 -0.5970  -0.3546    0.3962742566863464E-02   -0.4852279772804865E-05    0.1591823341631570E-05    0.4823825342422914E+00   -0.3593831006270142E-03    0.3459520432246094E-08   -0.2096220016144235E-09    0.1972748353562537E-11   -0.9034474557356731E-12   -0.2096053547742671E-09
 -0.5987  -0.3618    0.3073742220816062E-03   -0.1239700042713146E-04   -0.5012192479982440E-06    0.4900436601247963E+00    0.8733772861741500E-02    0.7199211168042477E-08   -0.2059035678503990E-09    0.1518746933770743E-11   -0.8789415592916350E-12   -0.1184689902601621E-09
 -0.6000  -0.3670   -0.2289841984636751E-02   -0.4359986166114536E-05   -0.1111010139892246E-05    0.4955633815945448E+00    0.3757025589934820E-02    0.2348198894355378E-08   -0.2020191438179691E-09    0.1241820014874495E-11   -0.9399174147328715E-12   -0.5292928226784122E-10
 -0.6007  -0.3701   -0.3839845041217816E-02   -0.1462091287431598E-06   -0.1464157725124119E-06    0.4988894432881349E+00    0.5979565268434254E-03    0.1255009350673546E-09   -0.1977443502996709E-09    0.6578302898067878E-12   -0.6585216313220732E-12   -0.1334180156761441E-10
 -0.6010  -0.3712   -0.4357560136014295E-02    0.0000000000000000E+00    0.0000000000000000E+00    0.5000000000000000E+00   -0.1006578333346986E-03    0.0000000000000000E+00    0.0000000000000000E+00    0.0000000000000000E+00    0.0000000000000000E+00    0.0000000000000000E+00
 -0.3668   0.6010    0.2592204289264537E-01    0.0000000000000000E+00    0.0000000000000000E+00   -0.5000000000000000E+00   -0.4245727502320034E-02    0.0000000000000000E+00    0.0000000000000000E+00    0.0000000000000000E+00    0.0000000000000000E+00    0.0000000000000000E+00
 -0.3670   0.6000    0.2643567370770532E-01    0.1153589627033064E-05   -0.4429886276233327E-05   -0.4956509833567514E+00   -0.4207585260936544E-02   -0.2358042839437618E-08   -0.1172111705003559E-08   -0.2441931476904885E-12   -0.2651202824985321E-12    0.8566655848238347E-11
 -0.3678   0.5968    0.2795330258789360E-01    0.1473314175274848E-04   -0.1473617341088189E-04   -0.4826246376325329E+00   -0.4757757554721881E-02   -0.3446560044426239E-07   -0.1172670139812371E-08   -0.7363140045596461E-12   -0.7015546997501954E-12    0.3393580295246723E-10
 -0.3690   0.5917    0.3040760812319549E-01    0.5668948882352580E-04   -0.2135827625157343E-04   -0.4609956244063326E+00   -0.9312962128870403E-02   -0.1354470501940944E-06   -0.1174149071372921E-08   -0.7188676737213129E-12   -0.1089852166846761E-11    0.7617648439123270E-10
 -0.3707   0.5844    0.3368268137444071E-01    0.1236337435350716E-03   -0.1960096183431836E-04   -0.4309304624464945E+00   -0.1992464236128617E-01   -0.2919473241703144E-06   -0.1176614555786770E-08    0.7528283552105108E-12   -0.1543816290083821E-11    0.1347257340411634E-09
 -0.3729   0.5752    0.3759557016940020E-01    0.1917315943850708E-03   -0.1246312431631372E-04   -0.3927496899610828E+00   -0.3316308510041685E-01   -0.4454751140356942E-06   -0.1179708572149329E-08    0.4510419815417777E-11   -0.1949650510479906E-11    0.2084345369912644E-09
 -0.3756   0.5640    0.4188794476196651E-01    0.2363470033879563E-03   -0.4277454504482378E-05   -0.3470096329891992E+00   -0.4411992996245397E-01   -0.5396997547035032E-06   -0.1182732689564148E-08    0.1085643207276998E-10   -0.2221075103350789E-11    0.2942517028647895E-09
 -0.3787   0.5508    0.4623824149472479E-01    0.2475801200129663E-03    0.1554112802336638E-05   -0.2945956000332163E+00   -0.5048136922473895E-01   -0.5530118718956244E-06   -0.1184787404794573E-08    0.1939865022088094E-10   -0.2293612023397673E-11    0.3860937056177072E-09
 -0.3823   0.5358    0.5028458109813138E-01    0.2380151552830653E-03    0.2610394135974569E-05   -0.2368136706770812E+00   -0.5482259696652177E-01   -0.5132188265394993E-06   -0.1185204657181728E-08    0.2916786286783456E-10   -0.2204204483866046E-11    0.4728128097375439E-09