 title="result"
 variables="x","y","P","u","v","t","omega","psi","RES1","RES2","RES3","RES4"
zone,j= 49,i= 49,f=point
 -0.4450   0.5495    0.2424188277836422E-01    0.0000000000000000E+00    0.0000000000000000E+00   -0.5000000000000000E+00    0.0000000000000000E+00    0.0000000000000000E+00    0.0000000000000000E+00    0.0000000000000000E+00    0.0000000000000000E+00    0.0000000000000000E+00
 -0.4451   0.5485    0.2476995745683452E-01    0.0000000000000000E+00    0.0000000000000000E+00   -0.4960331021175432E+00   -0.2346087890027687E-03    0.0000000000000000E+00    0.0000000000000000E+00    0.0000000000000000E+00    0.0000000000000000E+00    0.0000000000000000E+00
 -0.4454   0.5453    0.2633946632913431E-01    0.0000000000000000E+00    0.0000000000000000E+00   -0.4841510599869184E+00   -0.4332323729503647E-02    0.0000000000000000E+00    0.0000000000000000E+00    0.0000000000000000E+00    0.0000000000000000E+00    0.0000000000000000E+00
 -0.4460   0.5400    0.2890360817985320E-01    0.0000000000000000E+00    0.0000000000000000E+00   -0.4644195841129596E+00   -0.7567357180232223E-02    0.0000000000000000E+00    0.0000000000000000E+00    0.0000000000000000E+00    0.0000000000000000E+00    0.0000000000000000E+00
 -0.4468   0.5326    0.3233554294765859E-01    0.0000000000000000E+00    0.0000000000000000E+00   -0.4369789814805870E+00    0.5610624609125253E-02    0.0000000000000000E+00    0.0000000000000000E+00    0.0000000000000000E+00    0.0000000000000000E+00    0.0000000000000000E+00
 -0.4478   0.5231    0.3640132371522761E-01    0.0000000000000000E+00    0.0000000000000000E+00   -0.4020829922935481E+00    0.4712955970282420E-01    0.0000000000000000E+00    0.0000000000000000E+00    0.0000000000000000E+00    0.0000000000000000E+00    0.0000000000000000E+00
 -0.4490   0.5117    0.4079098844389639E-01    0.0000000000000000E+00    0.0000000000000000E+00   -0.3601409583306813E+00    0.1176801867340233E+00    0.0000000000000000E+00    0.0000000000000000E+00    0.0000000000000000E+00    0.0000000000000000E+00    0.0000000000000000E+00
 -0.4504   0.4982    0.4515170850331768E-01    0.0000000000000000E+00    0.0000000000000000E+00   -0.3117638702053666E+00    0.2059797039042105E+00    0.0000000000000000E+00    0.0000000000000000E+00    0.0000000000000000E+00    0.0000000000000000E+00    0.0000000000000000E+00
 -0.4520   0.4829    0.4912238384492975E-01    0.0000000000000000E+00    0.0000000000000000E+00   -0.2578270836643709E+00    0.2911214361637045E+00    0.0000000000000000E+00    0.0000000000000000E+00    0.0000000000000000E+00    0.0000000000000000E+00    0.0000000000000000E+00
 -0.4538   0.4657    0.5236439594025112E-01    0.0000000000000000E+00    0.0000000000000000E+00   -0.1995635415220534E+00    0.3469212658486621E+00    0.0000000000000000E+00    0.0000000000000000E+00    0.0000000000000000E+00    0.0000000000000000E+00    0.0000000000000000E+00
 -0.4558   0.4468    0.5458938366107597E-01    0.0000000000000000E+00    0.0000000000000000E+00   -0.1386800140743528E+00    0.3471293799392918E+00    0.0000000000000000E+00    0.0000000000000000E+00    0.0000000000000000E+00    0.0000000000000000E+00    0.0000000000000000E+00
 -0.4580   0.4261    0.5558058248036358E-01    0.0000000000000000E+00    0.0000000000000000E+00   -0.7744496215301663E-01    0.2706314711669374E+00    0.0000000000000000E+00    0.0000000000000000E+00    0.0000000000000000E+00    0.0000000000000000E+00    0.0000000000000000E+00
 -0.4603   0.4039    0.5520776966079520E-01    0.0000000000000000E+00    0.0000000000000000E+00   -0.1864616329093760E-01    0.1048417450499865E+00    0.0000000000000000E+00    0.0000000000000000E+00    0.0000000000000000E+00    0.0000000000000000E+00    0.0000000000000000E+00
 -0.4628   0.3801    0.5343616708608077E-01    0.0000000000000000E+00    0.0000000000000000E+00    0.3469939990865404E-01   -0.1542855909223549E+00    0.0000000000000000E+00    0.0000000000000000E+00    0.0000000000000000E+00    0.0000000000000000E+00    0.0000000000000000E+00
 -0.4654   0.3550    0.5033135596084080E-01    0.0000000000000000E+00    0.0000000000000000E+00    0.7992143483232200E-01   -0.5058006314375479E+00    0.0000000000000000E+00    0.0000000000000000E+00    0.0000000000000000E+00    0.0000000000000000E+00    0.0000000000000000E+00
 -0.4682   0.3285    0.4605737068676834E-01    0.0000000000000000E+00    0.0000000000000000E+00    0.1154037336053672E+00   -0.9485609221819045E+00    0.0000000000000000E+00    0.0000000000000000E+00    0.0000000000000000E+00    0.0000000000000000E+00    0.0000000000000000E+00
 -0.4711   0.3009    0.4086358501889679E-01    0.0000000000000000E+00    0.0000000000000000E+00    0.1410779013266296E+00   -0.1484139864277505E+01    0.0000000000000000E+00    0.0000000000000000E+00    0.0000000000000000E+00    0.0000000000000000E+00    0.0000000000000000E+00
 -0.4741   0.2722    0.3506054417513441E-01    0.0000000000000000E+00    0.0000000000000000E+00    0.1583799442409929E+00   -0.2116067391780844E+01    0.0000000000000000E+00    0.0000000000000000E+00    0.0000000000000000E+00    0.0000000000000000E+00    0.0000000000000000E+00
 -0.4773   0.2426    0.2899461191084647E-01    0.0000000000000000E+00    0.0000000000000000E+00    0.1696531631559432E+00   -0.2846004248251712E+01    0.0000000000000000E+00    0.0000000000000000E+00    0.0000000000000000E+00    0.0000000000000000E+00    0.0000000000000000E+00
 -0.4805   0.2121    0.2303084728457560E-01    0.0000000000000000E+00    0.0000000000000000E+00    0.1773391824569708E+00   -0.3668763019609374E+01    0.0000000000000000E+00    0.0000000000000000E+00    0.0000000000000000E+00    0.0000000000000000E+00    0.0000000000000000E+00
 -0.4837   0.1810    0.1754355769348082E-01    0.0000000000000000E+00    0.0000000000000000E+00    0.1833826237101705E+00   -0.4568389217170066E+01    0.0000000000000000E+00    0.0000000000000000E+00    0.0000000000000000E+00    0.0000000000000000E+00    0.0000000000000000E+00
 -0.4871   0.1493    0.1290468083703699E-01    0.0000000000000000E+00    0.0000000000000000E+00    0.1890408871237535E+00   -0.5516861620698209E+01    0.0000000000000000E+00    0.0000000000000000E+00    0.0000000000000000E+00    0.0000000000000000E+00    0.0000000000000000E+00
 -0.4904   0.1172    0.9462093641651502E-02    0.0000000000000000E+00    0.0000000000000000E+00    0.1950013341463854E+00   -0.6475707401518051E+01    0.0000000000000000E+00    0.0000000000000000E+00    0.0000000000000000E+00    0.0000000000000000E+00    0.0000000000000000E+00
 -0.4938   0.0848    0.7507628734485010E-02    0.0000000000000000E+00    0.0000000000000000E+00    0.2015988878946671E+00   -0.7399504620447600E+01    0.0000000000000000E+00    0.0000000000000000E+00    0.0000000000000000E+00    0.0000000000000000E+00    0.0000000000000000E+00
 -0.4973   0.0523    0.7241187956563895E-02    0.0000000000000000E+00    0.0000000000000000E+00    0.2089929804487834E+00   -0.8239814346920483E+01    0.0000000000000000E+00    0.0000000000000000E+00    0.0000000000000000E+00    0.0000000000000000E+00    0.0000000000000000E+00
 -0.5007   0.0197    0.8737992689347865E-02    0.0000000000000000E+00    0.0000000000000000E+00    0.2172675746566306E+00   -0.8948497703312057E+01    0.0000000000000000E+00    0.0000000000000000E+00    0.0000000000000000E+00    0.0000000000000000E+00    0.0000000000000000E+00
 -0.5041  -0.0126    0.1192389128313869E-01    0.0000000000000000E+00    0.0000000000000000E+00    0.2264742031699910E+00   -0.9480282968288989E+01    0.0000000000000000E+00    0.0000000000000000E+00    0.0000000000000000E+00    0.0000000000000000E+00    0.0000000000000000E+00
 -0.5075  -0.0447    0.1656148029967021E-01    0.0000000000000000E+00    0.0000000000000000E+00    0.2366456921125314E+00   -0.9795167300796130E+01    0.0000000000000000E+00    0.0000000000000000E+00    0.0000000000000000E+00    0.0000000000000000E+00    0.0000000000000000E+00
 -0.5108  -0.0764    0.2225044733262577E-01    0.0000000000000000E+00    0.0000000000000000E+00    0.2477979777215673E+00   -0.9861511547881895E+01    0.0000000000000000E+00    0.0000000000000000E+00    0.0000000000000000E+00    0.0000000000000000E+00    0.0000000000000000E+00
 -0.5141  -0.1076    0.2844720211095626E-01    0.0000000000000000E+00    0.0000000000000000E+00    0.2599279809352942E+00   -0.9660285925491772E+01    0.0000000000000000E+00    0.0000000000000000E+00    0.0000000000000000E+00    0.0000000000000000E+00    0.0000000000000000E+00
 -0.5173  -0.1380    0.3450944953318441E-01    0.0000000000000000E+00    0.0000000000000000E+00    0.2730107461443163E+00   -0.9190080309296460E+01    0.0000000000000000E+00    0.0000000000000000E+00    0.0000000000000000E+00    0.0000000000000000E+00    0.0000000000000000E+00
 -0.5204  -0.1677    0.3976729556824656E-01    0.0000000000000000E+00    0.0000000000000000E+00    0.2869972388248830E+00   -0.8471439266357487E+01    0.0000000000000000E+00    0.0000000000000000E+00    0.0000000000000000E+00    0.0000000000000000E+00    0.0000000000000000E+00
 -0.5234  -0.1964    0.4361367435856373E-01    0.0000000000000000E+00    0.0000000000000000E+00    0.3018134460936129E+00   -0.7548441793146251E+01    0.0000000000000000E+00    0.0000000000000000E+00    0.0000000000000000E+00    0.0000000000000000E+00    0.0000000000000000E+00
 -0.5263  -0.2240    0.4559582743257413E-01    0.0000000000000000E+00    0.0000000000000000E+00    0.3173607970884389E+00   -0.6485674472661469E+01    0.0000000000000000E+00    0.0000000000000000E+00    0.0000000000000000E+00    0.0000000000000000E+00    0.0000000000000000E+00
 -0.5291  -0.2504    0.4548317909227355E-01    0.0000000000000000E+00    0.0000000000000000E+00    0.3335171832741632E+00   -0.5360161383215236E+01    0.0000000000000000E+00    0.0000000000000000E+00    0.0000000000000000E+00    0.0000000000000000E+00    0.0000000000000000E+00
 -0.5317  -0.2756    0.4329075405695195E-01    0.0000000000000000E+00    0.0000000000000000E+00    0.3501372137967277E+00   -0.4249859067325302E+01    0.0000000000000000E+00    0.0000000000000000E+00    0.0000000000000000E+00    0.0000000000000000E+00    0.0000000000000000E+00
 -0.5342  -0.2994    0.3925203527791925E-01    0.0000000000000000E+00    0.0000000000000000E+00    0.3670502587777110E+00   -0.3221987100667315E+01    0.0000000000000000E+00    0.0000000000000000E+00    0.0000000000000000E+00    0.0000000000000000E+00    0.0000000000000000E+00
 -0.5366  -0.3216    0.3375340383052969E-01    0.0000000000000000E+00    0.0000000000000000E+00    0.3840557863444240E+00   -0.2324633045232972E+01    0.0000000000000000E+00    0.0000000000000000E+00    0.0000000000000000E+00    0.0000000000000000E+00    0.0000000000000000E+00
 -0.5387  -0.3422    0.2725421121585958E-01    0.0000000000000000E+00    0.0000000000000000E+00    0.4009175381007207E+00   -0.1583651414279581E+01    0.0000000000000000E+00    0.0000000000000000E+00    0.0000000000000000E+00    0.0000000000000000E+00    0.0000000000000000E+00
 -0.5407  -0.3612    0.2021642963068992E-01    0.0000000000000000E+00    0.0000000000000000E+00    0.4173604242791139E+00   -0.1004690970611357E+01    0.0000000000000000E+00    0.0000000000000000E+00    0.0000000000000000E+00    0.0000000000000000E+00    0.0000000000000000E+00
 -0.5425  -0.3784    0.1305807485636310E-01    0.0000000000000000E+00    0.0000000000000000E+00    0.4330750907465851E+00   -0.5784505736931798E+00    0.0000000000000000E+00    0.0000000000000000E+00    0.0000000000000000E+00    0.0000000000000000E+00    0.0000000000000000E+00
 -0.5441  -0.3937    0.6132456667087022E-02    0.0000000000000000E+00    0.0000000000000000E+00    0.4477334474936077E+00   -0.2866748161776912E+00    0.0000000000000000E+00    0.0000000000000000E+00    0.0000000000000000E+00    0.0000000000000000E+00    0.0000000000000000E+00
 -0.5455  -0.4071   -0.2738433664790629E-03    0.0000000000000000E+00    0.0000000000000000E+00    0.4610140133032228E+00   -0.1067938374361586E+00    0.0000000000000000E+00    0.0000000000000000E+00    0.0000000000000000E+00    0.0000000000000000E+00    0.0000000000000000E+00
 -0.5468  -0.4186   -0.5934648544020408E-02    0.0000000000000000E+00    0.0000000000000000E+00    0.4726307301085576E+00   -0.1428261385388525E-01    0.0000000000000000E+00    0.0000000000000000E+00    0.0000000000000000E+00    0.0000000000000000E+00    0.0000000000000000E+00
 -0.5477  -0.4281   -0.1067981819517507E-01    0.0000000000000000E+00    0.0000000000000000E+00    0.4823560371490754E+00    0.1702672097209074E-01    0.0000000000000000E+00    0.0000000000000000E+00    0.0000000000000000E+00    0.0000000000000000E+00    0.0000000000000000E+00
 -0.5485  -0.4354   -0.1439732882483039E-01    0.0000000000000000E+00    0.0000000000000000E+00    0.4900306185031745E+00    0.1449066936894074E-01    0.0000000000000000E+00    0.0000000000000000E+00    0.0000000000000000E+00    0.0000000000000000E+00    0.0000000000000000E+00
 -0.5491  -0.4407   -0.1703978662200712E-01    0.0000000000000000E+00    0.0000000000000000E+00    0.4955579092679598E+00    0.3829371022496331E-02    0.0000000000000000E+00    0.0000000000000000E+00    0.0000000000000000E+00    0.0000000000000000E+00    0.0000000000000000E+00
 -0.5494  -0.4439   -0.1862023137685263E-01    0.0000000000000000E+00    0.0000000000000000E+00    0.4988880934604528E+00   -0.1324049572066806E-03    0.0000000000000000E+00    0.0000000000000000E+00    0.0000000000000000E+00    0.0000000000000000E+00    0.0000000000000000E+00
 -0.5495  -0.4450   -0.1914986920988075E-01    0.0000000000000000E+00    0.0000000000000000E+00    0.5000000000000000E+00    0.0000000000000000E+00    0.0000000000000000E+00    0.0000000000000000E+00    0.0000000000000000E+00    0.0000000000000000E+00    0.0000000000000000E+00
 -0.4439   0.5494    0.2429998118810198E-01    0.0000000000000000E+00    0.0000000000000000E+00   -0.5000000000000000E+00   -0.2347401905423422E-03    0.0000000000000000E+00    0.0000000000000000E+00    0.0000000000000000E+00    0.0000000000000000E+00    0.0000000000000000E+00
 -0.4440   0.5483    0.2482783495815315E-01    0.2840604111611473E-06   -0.2841478267093625E-06   -0.4960330185819800E+00   -0.5364689820876003E-03   -0.1983629415181598E-09    0.3441859079645823E-09    0.5138410855663744E-12    0.4913998895295091E-12   -0.5704783867521712E-11
 -0.4444   0.5452    0.2639605229475876E-01    0.3600968775410888E-05   -0.6960999977129157E-06   -0.4841507270803634E+00   -0.2427616974152935E-02   -0.2068127581828266E-08    0.3475660820349141E-09    0.9247576662763102E-12    0.7191573725418010E-12   -0.2107900442735455E-10
 -0.4449   0.5399    0.2895417268150213E-01    0.5582552278631436E-05    0.2642778189125159E-06   -0.4644188471912329E+00   -0.2787468348052083E-02   -0.3455191869263660E-08    0.3506801454040628E-09    0.9605059803075022E-12    0.6933000180897597E-12   -0.4696793995395687E-10
 -0.4457   0.5325    0.3237580205615814E-01   -0.8765381832054878E-05    0.1743330909130031E-05   -0.4369777175544881E+00    0.1078590264591971E-01    0.4234265750530925E-08    0.3529484972515651E-09    0.8554788821779624E-12    0.7124700135419104E-12   -0.8384358311797069E-10
 -0.4467   0.5230    0.3643141983229196E-01   -0.5194836943925251E-04    0.3041345606367677E-05   -0.4020811135906570E+00    0.4993485562678688E-01    0.2753240807862015E-07    0.3548839234632228E-09    0.6995827528388787E-12    0.7126972623172634E-12   -0.1340315670950165E-09
 -0.4479   0.5116    0.4081320075096041E-01   -0.1250831242936633E-03    0.3679806347352685E-05   -0.3601383845361457E+00    0.1159768617762943E+00    0.6712978230143296E-07    0.3566710997729428E-09    0.5625942420262042E-12    0.7064869522732664E-12   -0.1991549807012216E-09
 -0.4493   0.4981    0.4516933712609325E-01   -0.2165945810597437E-03    0.3519349721906017E-05   -0.3117604851384369E+00    0.1986304490245517E+00    0.1166252620679663E-06    0.3588949666968877E-09    0.4846470447184004E-12    0.7073629876286347E-12   -0.2845109703386584E-09
 -0.4509   0.4828    0.4913867984904705E-01   -0.3046200802692793E-03    0.2559757803310406E-05   -0.2578227053122034E+00    0.2779200831416344E+00    0.1643149113283536E-06    0.3621896255134871E-09    0.4231059946846472E-12    0.6919569084384847E-12   -0.3965672200345605E-09
 -0.4527   0.4656    0.5238207425107844E-01   -0.3615674252860757E-03    0.9641194033695710E-06   -0.1995579337708092E+00    0.3285095200705068E+00    0.1952786906449998E-06    0.3674258161178584E-09    0.2621930450530385E-12    0.6789421455599687E-12   -0.5423685042749149E-09
 -0.4547   0.4467    0.5461016924597184E-01   -0.3596485529152547E-03   -0.1047114074422066E-05   -0.1386729587646262E+00    0.3247124681831976E+00    0.1946453421815244E-06    0.3754833536109836E-09   -0.1598304821825991E-12    0.7365497101119445E-12   -0.7261065984587312E-09
 -0.4569   0.4260    0.5560516781299713E-01   -0.2763896070922990E-03   -0.3197513372121634E-05   -0.7743639236748419E-01    0.2456724000503769E+00    0.1503132773348918E-06    0.3873039501958719E-09   -0.9738945760950912E-12    0.7312171701467918E-12   -0.9413966065019430E-09
 -0.4592   0.4038    0.5523599597603899E-01   -0.9826348691609104E-04   -0.5264713429678964E-05   -0.1863632317627531E-01    0.7868855761766616E-01    0.5509157131823948E-07    0.4037037978216196E-09   -0.2220057471191694E-11    0.7117223477237644E-12   -0.1164815202625569E-08
 -0.4617   0.3800    0.5346760800648055E-01    0.1792331017129106E-03   -0.7116039583086767E-05    0.3470985594688347E-01   -0.1805981408800890E+00   -0.9343403231222567E-07    0.4251073087296886E-09   -0.3870556652962875E-11    0.6497372084801611E-12   -0.1351487935452589E-08
 -0.4644   0.3549    0.5036587384021505E-01    0.5552446924298955E-03   -0.8759572147277849E-05    0.7993151605070759E-01   -0.5315496235865227E+00   -0.2947482393892606E-06    0.4508699247285364E-09   -0.5862754726138064E-11    0.6140574160262702E-12   -0.1441513797217908E-08
 -0.4672   0.3284    0.4609545791678017E-01    0.1028585503808033E-02   -0.1027916757961376E-04    0.1154123999671553E+00   -0.9730868582740392E+00   -0.5482342078003620E-06    0.4787737706291040E-09   -0.8189490752208428E-11    0.5883002418549665E-12   -0.1380091950442530E-08
 -0.4701   0.3008    0.4090618828536454E-01    0.1600800777978135E-02   -0.1177284626781003E-04    0.1410844397547141E+00   -0.1506528555636930E+01   -0.8547229252004972E-06    0.5049739133788922E-09   -0.1088320406017473E-10    0.5166769789788361E-12   -0.1142230712791736E-08
 -0.4731   0.2721    0.3510860607400836E-01    0.2275373053435730E-02   -0.1326678907695639E-04    0.1583842013351149E+00   -0.2134845448101122E+01   -0.1216148792208492E-05    0.5249017019648416E-09   -0.1400671245654905E-10    0.3961067585045441E-12   -0.7479778636743095E-09
 -0.4762   0.2424    0.2904848561090491E-01    0.3053684129466052E-02   -0.1470071991579415E-04    0.1696554907481836E+00   -0.2858960846584782E+01   -0.1633307024176844E-05    0.5343464871965242E-09   -0.1763315882197247E-10    0.3171074514085603E-12   -0.2543898581369719E-09
 -0.4794   0.2120    0.2308990999465540E-01    0.3929773917419978E-02   -0.1592789299625230E-04    0.1773401712842624E+00   -0.3672923826731672E+01   -0.2103092311008108E-05    0.5301631980647592E-09   -0.2173631066804127E-10    0.2076810945439433E-12    0.2673273564318679E-09
 -0.4827   0.1809    0.1760605431271521E-01    0.4886248400413662E-02   -0.1676758274083734E-04    0.1833828293685892E+00   -0.4560194989126973E+01   -0.2616239945599737E-05    0.5103523922911357E-09   -0.2615180294540664E-10    0.7474576513288866E-13    0.7573858067403891E-09
 -0.4860   0.1492    0.1296787765093745E-01    0.5892982476774776E-02   -0.1704585966557371E-04    0.1890406910883007E+00   -0.5492514124895946E+01   -0.3156655960326549E-05    0.4740313419571152E-09   -0.3052706004647021E-10   -0.2549349620295516E-13    0.1179455375380223E-08
 -0.4894   0.1171    0.9522558889444701E-02    0.6908901450712815E-02   -0.1664000200129716E-04    0.1950009415854007E+00   -0.6431619128714095E+01   -0.3702328052783655E-05    0.4212161175409790E-09   -0.3440510376595540E-10   -0.1238592561847440E-12    0.1520250357892050E-08
 -0.4928   0.0847    0.7561576995355847E-02    0.7885737730657458E-02   -0.1548184872793401E-04    0.2015983871856124E+00   -0.7332757788738142E+01   -0.4227360871978567E-05    0.3530445970290064E-09   -0.3732175679616034E-10   -0.2391142839286431E-12    0.1780625268760216E-08
 -0.4962   0.0522    0.7284717754882892E-02    0.8772211860817251E-02   -0.1355374512006017E-04    0.2089924012924669E+00   -0.8148568117177080E+01   -0.4704200373548368E-05    0.2716549450665351E-09   -0.3896022393590215E-10   -0.2756198047570990E-12    0.1968550548264725E-08
 -0.4996   0.0196    0.8767262354789668E-02    0.9517543623031329E-02   -0.1086598614118497E-04    0.2172669232832205E+00   -0.8832321342713636E+01   -0.5105532193525624E-05    0.1801027001147038E-09   -0.3915234803031353E-10   -0.3241573676149301E-12    0.2093260224877991E-08
 -0.5030  -0.0128    0.1193520975197977E-01    0.1007415883174860E-01   -0.7452052257001269E-05    0.2264734785866160E+00   -0.9340409182993197E+01   -0.5405732774283880E-05    0.8214687957641686E-10   -0.3792521852119535E-10   -0.2850011893151816E-12    0.2163783005201814E-08
 -0.5064  -0.0449    0.1655146327854056E-01    0.1040021720780012E-01   -0.3371461575099207E-05    0.2366448924224044E+00   -0.9634669601365555E+01   -0.5582228662414898E-05   -0.1813392925403834E-10   -0.3543815241258130E-10   -0.2056237125014349E-12    0.2187754424669286E-08
 -0.5097  -0.0765    0.2221625032791176E-01    0.1046285905629165E-01    0.1264598787142266E-05    0.2477971023734304E+00   -0.9685350796528450E+01   -0.5617254629002284E-05   -0.1167938428262016E-09   -0.3198785680780247E-10   -0.1131759616579409E-12    0.2171621870175611E-08
 -0.5130  -0.1077    0.2838692873929905E-01    0.1024264231571909E-01    0.6266993594521272E-05    0.2599270313672188E+00   -0.9475164009718172E+01   -0.5500232483485308E-05   -0.2104105847888782E-09   -0.2789479758291691E-10    0.7403799795469013E-14    0.2120694416948843E-08
 -0.5162  -0.1381    0.3442261865554984E-01    0.9738748576738399E-02    0.1134783114739051E-04    0.2730097255414742E+00   -0.9003987639937058E+01   -0.5230608830101533E-05   -0.2963316536597205E-09   -0.2352867900512479E-10    0.1766156665361507E-12    0.2040332064759398E-08
 -0.5193  -0.1678    0.3965530202966792E-01    0.8973445990968058E-02    0.1612982468831159E-04    0.2869961511402201E+00   -0.8292883771674710E+01   -0.4820244457810084E-05   -0.3729878350622329E-09   -0.1926142578767553E-10    0.3153310945691601E-12    0.1934688470192625E-08
 -0.5223  -0.1965    0.4347998320881857E-01    0.7993641510505226E-02    0.2019259829741459E-04    0.3018122945185623E+00   -0.7385401045436617E+01   -0.4294309945373938E-05   -0.4398579001030356E-09   -0.1538852378857314E-10    0.4935496455971133E-12    0.1808195568969717E-08
 -0.5252  -0.2241    0.4544581254698351E-01    0.6867616424854657E-02    0.2315209403134553E-04    0.3173595824780616E+00   -0.6344522840532850E+01   -0.3689492545685465E-05   -0.4973254308371367E-09   -0.1212874245481999E-10    0.6278311204255260E-12    0.1665528936989347E-08
 -0.5280  -0.2506    0.4532348343815885E-01    0.5676519752277512E-02    0.2475123887301097E-04    0.3335159034202055E+00   -0.5244820956397382E+01   -0.3049480393044820E-05   -0.5464024233070575E-09   -0.9588607685628858E-11    0.7355088760263584E-12    0.1510958691497422E-08
 -0.5307  -0.2757    0.4312838283651341E-01    0.4502318927305241E-02    0.2492051353912547E-04    0.3501358646257460E+00   -0.4161478724285847E+01   -0.2418391037073014E-05   -0.5882967307746512E-09   -0.7746941976805033E-11    0.7948364189047652E-12    0.1348840284257080E-08
 -0.5332  -0.2995    0.3909335901777995E-01    0.3415617163075264E-02    0.2379106173633169E-04    0.3670488382547225E+00   -0.3159167046416069E+01   -0.1834284681977770E-05   -0.6241126435102551E-09   -0.6482231418303286E-11    0.8575778975838944E-12    0.1184075417576258E-08
 -0.5355  -0.3217    0.3360345032655564E-01    0.2466906597053826E-02    0.2164072270920302E-04    0.3840543008891804E+00   -0.2284139444798345E+01   -0.1324332022866318E-05   -0.6545747485708908E-09   -0.5617492582210559E-11    0.8728712197481059E-12    0.1019735062016136E-08
 -0.5377  -0.3424    0.2711632068373413E-01    0.1683347069017737E-02    0.1881677493591957E-04    0.4009160098313311E+00   -0.1561266802753086E+01   -0.9032018796235810E-06   -0.6801099058928450E-09   -0.4963467137297783E-11    0.8986422717072173E-12    0.8605147341217423E-09
 -0.5397  -0.3613    0.2009239224373313E-01    0.1070886838604844E-02    0.1564001321009312E-04    0.4173588959998255E+00   -0.9960312630920067E+00   -0.5740489604340972E-06   -0.7009369855370817E-09   -0.4379423906852864E-11    0.8692213615546507E-12    0.7093527570889435E-09
 -0.5415  -0.3785    0.1294849094415803E-01    0.6197483705327223E-03    0.1235909243925590E-04    0.4330736252557550E+00   -0.5794460832339333E+00   -0.3316652836038945E-06   -0.7172698962554236E-09   -0.3773668226861315E-11    0.8795603134714725E-12    0.5682115212374272E-09
 -0.5431  -0.3938    0.6037237672472921E-02    0.3106727398967415E-03    0.9118528432104674E-05    0.4477321191886549E+00   -0.2938167091599141E+00   -0.1656204775557872E-06   -0.7294164577897888E-09   -0.3139818266495453E-11    0.8645584248512250E-12    0.4399565555618379E-09
 -0.5445  -0.4073   -0.3552201752900826E-03    0.1197563320228863E-03    0.6015064250671267E-05    0.4610128929995488E+00   -0.1170187546656404E+00   -0.6316328607384427E-07   -0.7379682368663376E-09   -0.2511393870641143E-11    0.8564086939610860E-12    0.3259024950949541E-09
 -0.5457  -0.4187   -0.6003188737782446E-02    0.2090014616048185E-04    0.3141518137967169E-05    0.4726298673012297E+00   -0.2486866389365364E-01   -0.1018078998302325E-07   -0.7436387105055897E-09   -0.1966031504263555E-11    0.8410078189413639E-12    0.2279999774049135E-09
 -0.5467  -0.4282   -0.1073761280132263E-01   -0.1376111088921814E-04    0.7461651623819481E-06    0.4823554460775841E+00    0.8610755879756626E-02    0.8118955731414757E-08   -0.7474904128827731E-09   -0.1560501727837504E-11    0.8525818939730812E-12    0.1466352178569608E-09
 -0.5475  -0.4356   -0.1444855920288955E-01   -0.1322996370050857E-04   -0.8065272714612295E-06    0.4900302739281167E+00    0.1011986379753610E-01    0.7532414543191152E-08   -0.7504838035743422E-09   -0.1319385573017584E-11    0.8379681497305835E-12    0.8256006251913806E-10
 -0.5480  -0.4409   -0.1709128314094709E-01   -0.3922047436747405E-05   -0.1051942976601967E-05    0.4955577541874098E+00    0.3601791845586727E-02    0.2080019867728873E-08   -0.7540967138924826E-09   -0.1147281054880711E-11    0.8798951151023360E-12    0.3678223437636463E-10
 -0.5483  -0.4440   -0.1867401682078059E-01   -0.1049616646016969E-06   -0.1052429860824328E-06    0.4988880545992943E+00    0.5196938543508824E-03    0.9146171889082483E-10   -0.7581322209013371E-09   -0.6248095573910262E-12    0.6082877257451713E-12    0.9163601735057147E-11
 -0.5485  -0.4451   -0.1920371760721523E-01    0.0000000000000000E+00    0.0000000000000000E+00    0.5000000000000000E+00   -0.1318253124241278E-03    0.0000000000000000E+00    0.0000000000000000E+00    0.0000000000000000E+00    0.0000000000000000E+00    0.0000000000000000E+00
 -0.4407   0.5491    0.2446121360515601E-01    0.0000000000000000E+00    0.0000000000000000E+00   -0.5000000000000000E+00   -0.4332521591755479E-02    0.0000000000000000E+00    0.0000000000000000E+00    0.0000000000000000E+00    0.0000000000000000E+00    0.0000000000000000E+00
 -0.4409   0.5480    0.2498902861649060E-01    0.6959211808258067E-06   -0.3600969710839211E-05   -0.4960317710479664E+00   -0.2427426008632134E-02   -0.2068159200571707E-08    0.3474226470748243E-09    0.7202318168947341E-12    0.9460367060044883E-12   -0.5281630059521258E-11
 -0.4412   0.5448    0.2655525050185418E-01    0.5127935428655722E-05   -0.5128428725417180E-05   -0.4841457577355769E+00    0.2108189414766281E-02   -0.1903292393314001E-07    0.3487075253116173E-09    0.2160355878563780E-11    0.2267871654360043E-11   -0.2076263943759371E-10
 -0.4417   0.5395    0.2910097471036189E-01   -0.5645816438786305E-06    0.6614977326359628E-05   -0.4644078244397840E+00    0.8638547727280923E-02   -0.1906172685862177E-07    0.3508580834719888E-09    0.2975397705995420E-11    0.2765151822792244E-11   -0.4702798133554564E-10
 -0.4425   0.5321    0.3249831310526197E-01   -0.6125367958250318E-04    0.2703897876065578E-04   -0.4369586760122999E+00    0.2355742737380803E-01    0.1075965613268162E-06    0.3529793402012871E-09    0.3011318625012471E-11    0.2911399420157945E-11   -0.8400951288789482E-10
 -0.4435   0.5227    0.3652707822517694E-01   -0.2210225490837141E-03    0.4564356509615160E-04   -0.4020525099747274E+00    0.5631112872853424E-01    0.4609072742840168E-06    0.3548707785960836E-09    0.2685970369731283E-11    0.2928034550930825E-11   -0.1338070453049678E-09
 -0.4447   0.5112    0.4088666806183563E-01   -0.4870404056375134E-03    0.5516477055239449E-04   -0.3600987807744824E+00    0.1097207533870356E+00    0.1054293305971334E-05    0.3567215134392399E-09    0.2348329863899323E-11    0.2906475407571385E-11   -0.1989637413157830E-09
 -0.4461   0.4978    0.4522892801288116E-01   -0.8185773207870487E-03    0.5255712662584077E-04   -0.3117080175408353E+00    0.1761296733276504E+00    0.1795321477566461E-05    0.3589777364254587E-09    0.2174340568705802E-11    0.2865225418036133E-11   -0.2842500089472733E-09
 -0.4477   0.4825    0.4919329559512622E-01   -0.1134315303567231E-02    0.3780850635059606E-04   -0.2577547298810400E+00    0.2384090421926927E+00    0.2504551185704664E-05    0.3622983787976430E-09    0.2035087376395239E-11    0.2889825531648960E-11   -0.3963511810423093E-09