 title="result"
 variables="x","y","P","u","v","t","omega","psi","RES1","RES2","RES3","RES4"
zone,j= 49,i= 49,f=point
 -0.1830   0.6830    0.2401758935418899E-01    0.0000000000000000E+00    0.0000000000000000E+00   -0.5000000000000000E+00    0.0000000000000000E+00    0.0000000000000000E+00    0.0000000000000000E+00    0.0000000000000000E+00    0.0000000000000000E+00    0.0000000000000000E+00
 -0.1835   0.6821    0.2447890045718901E-01    0.0000000000000000E+00    0.0000000000000000E+00   -0.4948729544673073E+00    0.5468222406276945E-03    0.0000000000000000E+00    0.0000000000000000E+00    0.0000000000000000E+00    0.0000000000000000E+00    0.0000000000000000E+00
 -0.1852   0.6793    0.2580206126506338E-01    0.0000000000000000E+00    0.0000000000000000E+00   -0.4795170509439777E+00   -0.4856973137723803E-02    0.0000000000000000E+00    0.0000000000000000E+00    0.0000000000000000E+00    0.0000000000000000E+00    0.0000000000000000E+00
 -0.1878   0.6747    0.2790497243155847E-01    0.0000000000000000E+00    0.0000000000000000E+00   -0.4540282682551648E+00   -0.4871789486157730E-01    0.0000000000000000E+00    0.0000000000000000E+00    0.0000000000000000E+00    0.0000000000000000E+00    0.0000000000000000E+00
 -0.1915   0.6683    0.3076727047471360E-01    0.0000000000000000E+00    0.0000000000000000E+00   -0.4186398677660716E+00   -0.1557068508706078E+00    0.0000000000000000E+00    0.0000000000000000E+00    0.0000000000000000E+00    0.0000000000000000E+00    0.0000000000000000E+00
 -0.1963   0.6600    0.3434826728934703E-01    0.0000000000000000E+00    0.0000000000000000E+00   -0.3738492920333381E+00   -0.3214555615833113E+00    0.0000000000000000E+00    0.0000000000000000E+00    0.0000000000000000E+00    0.0000000000000000E+00    0.0000000000000000E+00
 -0.2020   0.6501    0.3851068741796500E-01    0.0000000000000000E+00    0.0000000000000000E+00   -0.3206044146118835E+00   -0.5186679736298027E+00    0.0000000000000000E+00    0.0000000000000000E+00    0.0000000000000000E+00    0.0000000000000000E+00    0.0000000000000000E+00
 -0.2088   0.6384    0.4299395750960299E-01    0.0000000000000000E+00    0.0000000000000000E+00   -0.2604996702512555E+00   -0.7080465204844965E+00    0.0000000000000000E+00    0.0000000000000000E+00    0.0000000000000000E+00    0.0000000000000000E+00    0.0000000000000000E+00
 -0.2165   0.6250    0.4741737488804322E-01    0.0000000000000000E+00    0.0000000000000000E+00   -0.1958797001323254E+00   -0.8518714235345866E+00    0.0000000000000000E+00    0.0000000000000000E+00    0.0000000000000000E+00    0.0000000000000000E+00    0.0000000000000000E+00
 -0.2251   0.6100    0.5132431489945466E-01    0.0000000000000000E+00    0.0000000000000000E+00   -0.1297414453882823E+00   -0.9274857218978653E+00    0.0000000000000000E+00    0.0000000000000000E+00    0.0000000000000000E+00    0.0000000000000000E+00    0.0000000000000000E+00
 -0.2347   0.5935    0.5425622989881063E-01    0.0000000000000000E+00    0.0000000000000000E+00   -0.6539908162807559E-01   -0.9376613574489073E+00    0.0000000000000000E+00    0.0000000000000000E+00    0.0000000000000000E+00    0.0000000000000000E+00    0.0000000000000000E+00
 -0.2451   0.5756    0.5584710341168104E-01    0.0000000000000000E+00    0.0000000000000000E+00   -0.5998053185220148E-02   -0.9127407498561705E+00    0.0000000000000000E+00    0.0000000000000000E+00    0.0000000000000000E+00    0.0000000000000000E+00    0.0000000000000000E+00
 -0.2562   0.5562    0.5590276525602622E-01    0.0000000000000000E+00    0.0000000000000000E+00    0.4595779029353070E-01   -0.9011343765839788E+00    0.0000000000000000E+00    0.0000000000000000E+00    0.0000000000000000E+00    0.0000000000000000E+00    0.0000000000000000E+00
 -0.2682   0.5355    0.5442981179597431E-01    0.0000000000000000E+00    0.0000000000000000E+00    0.8892950685019942E-01   -0.9517421613527455E+00    0.0000000000000000E+00    0.0000000000000000E+00    0.0000000000000000E+00    0.0000000000000000E+00    0.0000000000000000E+00
 -0.2808   0.5136    0.5159827596474020E-01    0.0000000000000000E+00    0.0000000000000000E+00    0.1224695226922962E+00   -0.1098710824493707E+01    0.0000000000000000E+00    0.0000000000000000E+00    0.0000000000000000E+00    0.0000000000000000E+00    0.0000000000000000E+00
 -0.2941   0.4906    0.4766825006813277E-01    0.0000000000000000E+00    0.0000000000000000E+00    0.1471646109771418E+00   -0.1357456137692593E+01    0.0000000000000000E+00    0.0000000000000000E+00    0.0000000000000000E+00    0.0000000000000000E+00    0.0000000000000000E+00
 -0.3080   0.4665    0.4292597507433232E-01    0.0000000000000000E+00    0.0000000000000000E+00    0.1644172853335762E+00   -0.1730745819038662E+01    0.0000000000000000E+00    0.0000000000000000E+00    0.0000000000000000E+00    0.0000000000000000E+00    0.0000000000000000E+00
 -0.3224   0.4415    0.3765527293886109E-01    0.0000000000000000E+00    0.0000000000000000E+00    0.1760966335927774E+00   -0.2216379543719385E+01    0.0000000000000000E+00    0.0000000000000000E+00    0.0000000000000000E+00    0.0000000000000000E+00    0.0000000000000000E+00
 -0.3373   0.4157    0.3213597559420511E-01    0.0000000000000000E+00    0.0000000000000000E+00    0.1841350965734893E+00   -0.2810198042849702E+01    0.0000000000000000E+00    0.0000000000000000E+00    0.0000000000000000E+00    0.0000000000000000E+00    0.0000000000000000E+00
 -0.3527   0.3892    0.2665220393387199E-01    0.0000000000000000E+00    0.0000000000000000E+00    0.1901904251845895E+00   -0.3504767013703946E+01    0.0000000000000000E+00    0.0000000000000000E+00    0.0000000000000000E+00    0.0000000000000000E+00    0.0000000000000000E+00
 -0.3683   0.3621    0.2149820955409744E-01    0.0000000000000000E+00    0.0000000000000000E+00    0.1954707356758804E+00   -0.4286973979064131E+01    0.0000000000000000E+00    0.0000000000000000E+00    0.0000000000000000E+00    0.0000000000000000E+00    0.0000000000000000E+00
 -0.3842   0.3345    0.1697746065836359E-01    0.0000000000000000E+00    0.0000000000000000E+00    0.2007362221898690E+00   -0.5136821562007242E+01    0.0000000000000000E+00    0.0000000000000000E+00    0.0000000000000000E+00    0.0000000000000000E+00    0.0000000000000000E+00
 -0.4004   0.3065    0.1339248033960887E-01    0.0000000000000000E+00    0.0000000000000000E+00    0.2064103078803593E+00   -0.6027843687905615E+01    0.0000000000000000E+00    0.0000000000000000E+00    0.0000000000000000E+00    0.0000000000000000E+00    0.0000000000000000E+00
 -0.4167   0.2783    0.1102697431013396E-01    0.0000000000000000E+00    0.0000000000000000E+00    0.2127125560871758E+00   -0.6928650343064757E+01    0.0000000000000000E+00    0.0000000000000000E+00    0.0000000000000000E+00    0.0000000000000000E+00    0.0000000000000000E+00
 -0.4330   0.2500    0.1012341014854486E-01    0.0000000000000000E+00    0.0000000000000000E+00    0.2197591083173689E+00   -0.7804677610717958E+01    0.0000000000000000E+00    0.0000000000000000E+00    0.0000000000000000E+00    0.0000000000000000E+00    0.0000000000000000E+00
 -0.4494   0.2217    0.1086009742053789E-01    0.0000000000000000E+00    0.0000000000000000E+00    0.2276195261843191E+00   -0.8619397698327235E+01    0.0000000000000000E+00    0.0000000000000000E+00    0.0000000000000000E+00    0.0000000000000000E+00    0.0000000000000000E+00
 -0.4656   0.1935    0.1332894579566987E-01    0.0000000000000000E+00    0.0000000000000000E+00    0.2363418992506291E+00   -0.9334669597316214E+01    0.0000000000000000E+00    0.0000000000000000E+00    0.0000000000000000E+00    0.0000000000000000E+00    0.0000000000000000E+00
 -0.4818   0.1655    0.1751368756911392E-01    0.0000000000000000E+00    0.0000000000000000E+00    0.2459609054460771E+00   -0.9910643801371263E+01    0.0000000000000000E+00    0.0000000000000000E+00    0.0000000000000000E+00    0.0000000000000000E+00    0.0000000000000000E+00
 -0.4977   0.1379    0.2326798011041679E-01    0.0000000000000000E+00    0.0000000000000000E+00    0.2564983005213267E+00   -0.1030612993233346E+02    0.0000000000000000E+00    0.0000000000000000E+00    0.0000000000000000E+00    0.0000000000000000E+00    0.0000000000000000E+00
 -0.5134   0.1108    0.3029642901099982E-01    0.0000000000000000E+00    0.0000000000000000E+00    0.2679603860353691E+00   -0.1048062921215907E+02    0.0000000000000000E+00    0.0000000000000000E+00    0.0000000000000000E+00    0.0000000000000000E+00    0.0000000000000000E+00
 -0.5287   0.0843    0.3814619740785129E-01    0.0000000000000000E+00    0.0000000000000000E+00    0.2803344421496237E+00   -0.1039890659484969E+02    0.0000000000000000E+00    0.0000000000000000E+00    0.0000000000000000E+00    0.0000000000000000E+00    0.0000000000000000E+00
 -0.5436   0.0585    0.4622149551398401E-01    0.0000000000000000E+00    0.0000000000000000E+00    0.2935852082604188E+00   -0.1003818650736532E+02    0.0000000000000000E+00    0.0000000000000000E+00    0.0000000000000000E+00    0.0000000000000000E+00    0.0000000000000000E+00
 -0.5580   0.0335    0.5383247580837233E-01    0.0000000000000000E+00    0.0000000000000000E+00    0.3076522467322803E+00   -0.9396602333033933E+01    0.0000000000000000E+00    0.0000000000000000E+00    0.0000000000000000E+00    0.0000000000000000E+00    0.0000000000000000E+00
 -0.5719   0.0094    0.6028170816842655E-01    0.0000000000000000E+00    0.0000000000000000E+00    0.3224488027392375E+00   -0.8500129710610977E+01    0.0000000000000000E+00    0.0000000000000000E+00    0.0000000000000000E+00    0.0000000000000000E+00    0.0000000000000000E+00
 -0.5852  -0.0136    0.6497501890683714E-01    0.0000000000000000E+00    0.0000000000000000E+00    0.3378622673807710E+00   -0.7404494385785470E+01    0.0000000000000000E+00    0.0000000000000000E+00    0.0000000000000000E+00    0.0000000000000000E+00    0.0000000000000000E+00
 -0.5978  -0.0355    0.6752693775947603E-01    0.0000000000000000E+00    0.0000000000000000E+00    0.3537555397462588E+00   -0.6189675190437200E+01    0.0000000000000000E+00    0.0000000000000000E+00    0.0000000000000000E+00    0.0000000000000000E+00    0.0000000000000000E+00
 -0.6098  -0.0562    0.6782524085804624E-01    0.0000000000000000E+00    0.0000000000000000E+00    0.3699677639024347E+00   -0.4947346916284182E+01    0.0000000000000000E+00    0.0000000000000000E+00    0.0000000000000000E+00    0.0000000000000000E+00    0.0000000000000000E+00
 -0.6210  -0.0756    0.6603163412433316E-01    0.0000000000000000E+00    0.0000000000000000E+00    0.3863127102105498E+00   -0.3764968509988595E+01    0.0000000000000000E+00    0.0000000000000000E+00    0.0000000000000000E+00    0.0000000000000000E+00    0.0000000000000000E+00
 -0.6314  -0.0935    0.6252149651210509E-01    0.0000000000000000E+00    0.0000000000000000E+00    0.4025741550213962E+00   -0.2711777741045203E+01    0.0000000000000000E+00    0.0000000000000000E+00    0.0000000000000000E+00    0.0000000000000000E+00    0.0000000000000000E+00
 -0.6409  -0.1100    0.5778929179552020E-01    0.0000000000000000E+00    0.0000000000000000E+00    0.4185001501937415E+00   -0.1831051656980006E+01    0.0000000000000000E+00    0.0000000000000000E+00    0.0000000000000000E+00    0.0000000000000000E+00    0.0000000000000000E+00
 -0.6495  -0.1250    0.5235474182069446E-01    0.0000000000000000E+00    0.0000000000000000E+00    0.4338010354621058E+00   -0.1139762595548536E+01    0.0000000000000000E+00    0.0000000000000000E+00    0.0000000000000000E+00    0.0000000000000000E+00    0.0000000000000000E+00
 -0.6572  -0.1384    0.4669537358311512E-01    0.0000000000000000E+00    0.0000000000000000E+00    0.4481572065700117E+00   -0.6338238286771549E+00    0.0000000000000000E+00    0.0000000000000000E+00    0.0000000000000000E+00    0.0000000000000000E+00    0.0000000000000000E+00
 -0.6640  -0.1501    0.4121382546002967E-01    0.0000000000000000E+00    0.0000000000000000E+00    0.4612399069142734E+00   -0.2951117910578527E+00    0.0000000000000000E+00    0.0000000000000000E+00    0.0000000000000000E+00    0.0000000000000000E+00    0.0000000000000000E+00
 -0.6697  -0.1600    0.3623161891430716E-01    0.0000000000000000E+00    0.0000000000000000E+00    0.4727418673910035E+00   -0.9707466590914775E-01    0.0000000000000000E+00    0.0000000000000000E+00    0.0000000000000000E+00    0.0000000000000000E+00    0.0000000000000000E+00
 -0.6745  -0.1683    0.3199346853487139E-01    0.0000000000000000E+00    0.0000000000000000E+00    0.4824079661403569E+00   -0.6913302171338784E-02    0.0000000000000000E+00    0.0000000000000000E+00    0.0000000000000000E+00    0.0000000000000000E+00    0.0000000000000000E+00
 -0.6782  -0.1747    0.2866542499532215E-01    0.0000000000000000E+00    0.0000000000000000E+00    0.4900540793330571E+00    0.1366673362822446E-01    0.0000000000000000E+00    0.0000000000000000E+00    0.0000000000000000E+00    0.0000000000000000E+00    0.0000000000000000E+00
 -0.6809  -0.1793    0.2632324712550308E-01    0.0000000000000000E+00    0.0000000000000000E+00    0.4955673302182959E+00    0.5770320043253652E-02    0.0000000000000000E+00    0.0000000000000000E+00    0.0000000000000000E+00    0.0000000000000000E+00    0.0000000000000000E+00
 -0.6825  -0.1821    0.2494262344308629E-01    0.0000000000000000E+00    0.0000000000000000E+00    0.4988903906472826E+00   -0.3747123219142742E-04    0.0000000000000000E+00    0.0000000000000000E+00    0.0000000000000000E+00    0.0000000000000000E+00    0.0000000000000000E+00
 -0.6830  -0.1830    0.2448332621750099E-01    0.0000000000000000E+00    0.0000000000000000E+00    0.5000000000000000E+00    0.0000000000000000E+00    0.0000000000000000E+00    0.0000000000000000E+00    0.0000000000000000E+00    0.0000000000000000E+00    0.0000000000000000E+00
 -0.1821   0.6825    0.2428509274281655E-01    0.0000000000000000E+00    0.0000000000000000E+00   -0.5000000000000000E+00    0.5474629846769360E-03    0.0000000000000000E+00    0.0000000000000000E+00    0.0000000000000000E+00    0.0000000000000000E+00    0.0000000000000000E+00
 -0.1826   0.6816    0.2474503277773472E-01   -0.4459648388871937E-07    0.4497222047293668E-07   -0.4948727908768057E+00   -0.7215704630555524E-03    0.4877343037930433E-10    0.3543939894150305E-09   -0.8037828215512466E-12   -0.7800496359955389E-12    0.1492244262185638E-10
 -0.1842   0.6788    0.2607093539986508E-01    0.7397982221700299E-05   -0.2548889018726656E-05   -0.4795163850432746E+00   -0.9536689157052438E-02   -0.3550974873357265E-08    0.3489011926594010E-09   -0.1432144333679553E-11   -0.1154234693934164E-11    0.5933318159706547E-10
 -0.1869   0.6742    0.2817934772968093E-01    0.5283352691525957E-04   -0.6457264186443098E-05   -0.4540266947520695E+00   -0.5030043562496381E-01   -0.2822351291135203E-07    0.3437331200922822E-09   -0.1286209203379962E-11   -0.1138682897972032E-11    0.1335782717076794E-09
 -0.1906   0.6677    0.3103658292942677E-01    0.1625403431845111E-03   -0.9145861532756781E-05   -0.4186368678872229E+00   -0.1482127269539042E+00   -0.8771949512013782E-07    0.3403150157510471E-09   -0.7396999679443184E-12   -0.1168641572402151E-11    0.2375809132759699E-09
 -0.1954   0.6595    0.3459769756239851E-01    0.3341279007152438E-03   -0.1003345290195018E-04   -0.3738442894546911E+00   -0.3029231334090969E+00   -0.1806273743054048E-06    0.3383177037130647E-09   -0.3027439410274724E-13   -0.1173873498405698E-11    0.3718382407535969E-09
 -0.2011   0.6495    0.3872697191389665E-01    0.5400715547373345E-03   -0.9022920364590107E-05   -0.3205969336297065E+00   -0.4904218597020689E+00   -0.2917599894593108E-06    0.3376049925729596E-09    0.5356132204425990E-12   -0.1146527317530399E-11    0.5369943101296570E-09
 -0.2079   0.6378    0.4316692659716869E-01    0.7395724276876176E-03   -0.6771591288017338E-05   -0.2604895389392175E+00   -0.6737251686488509E+00   -0.3991352525887229E-06    0.3371382270578316E-09    0.6755845882722156E-12   -0.1130078669531187E-11    0.7331807105881438E-09
 -0.2156   0.6245    0.4754181892423763E-01    0.8929359743981633E-03   -0.3919998356227342E-05   -0.1958672007488725E+00   -0.8164143987370073E+00   -0.4813268640084602E-06    0.3355844057501001E-09    0.1947469963070603E-12   -0.1067410049238049E-11    0.9609860407433501E-09
 -0.2242   0.6095    0.5140052751876834E-01    0.9760015840789937E-03   -0.1332738451549726E-05   -0.1297273157493426E+00   -0.8959848777435094E+00   -0.5254220678068264E-06    0.3310392927662054E-09   -0.1024971774121752E-11   -0.1027661462871254E-11    0.1219522358097969E-08
 -0.2337   0.5930    0.5428985170085575E-01    0.9912007229274044E-03    0.3284965486263923E-06   -0.6538434634222105E-01   -0.9142137330043157E+00   -0.5327918725301156E-06    0.3212373867345769E-09   -0.3033892581605357E-11   -0.1050802674040785E-11    0.1504413565944773E-08
 -0.2441   0.5750    0.5584743265592851E-01    0.9699678924417289E-03    0.6207436632624496E-06   -0.5983770181162275E-02   -0.8994694580713007E+00   -0.5204630781855805E-06    0.3034300929006389E-09   -0.5778190426131147E-11   -0.9865975224288004E-12    0.1804778992919864E-08
 -0.2553   0.5557    0.5588024726823560E-01    0.9629137825806394E-03   -0.3766756047062207E-06    0.4597073943168393E-01   -0.8978951715899098E+00   -0.5157329461535897E-06    0.2749400318958345E-09   -0.9050031557489291E-11   -0.9883678077360347E-12    0.2099003151845302E-08
 -0.2672   0.5350    0.5439359167086314E-01    0.1021459190763403E-02   -0.2262826861398729E-05    0.8894051519080023E-01   -0.9566510119346884E+00   -0.5462938370725046E-06    0.2337513472713826E-09   -0.1251215450692733E-10   -0.9434501790916983E-12    0.2353870057203444E-08
 -0.2799   0.5131    0.5155511030186056E-01    0.1181777737431516E-02   -0.4479628898502089E-05    0.1224782698774554E+00   -0.1109177030303766E+01   -0.6315776074564093E-06    0.1792993462035319E-09   -0.1576527103308578E-10   -0.8981912436034634E-12    0.2528494698339490E-08
 -0.2932   0.4900    0.4762272252453385E-01    0.1460423045716527E-02   -0.6674037138443253E-05    0.1471710456468322E+00   -0.1370986028342924E+01   -0.7804325809461719E-06    0.1126541950002835E-09   -0.1846861552579071E-10   -0.8210689073084865E-12    0.2583874392225738E-08
 -0.3071   0.4660    0.4288124010811796E-01    0.1860523048787286E-02   -0.8691517815906370E-05    0.1644215986805409E+00   -0.1745157905848896E+01   -0.9945107298267099E-06    0.3606618476093004E-10   -0.2035842328051984E-10   -0.8091791126041414E-12    0.2496199722618053E-08
 -0.3215   0.4410    0.3761344152649816E-01    0.2379763768310131E-02   -0.1054119713867072E-04    0.1760992046226703E+00   -0.2229570267557687E+01   -0.1272557366030755E-05   -0.4737349401651159E-10   -0.2117148817371017E-10   -0.7677469771039114E-12    0.2267073414413678E-08
 -0.3364   0.4152    0.3209812022145005E-01    0.3013575937582638E-02   -0.1220875147944527E-04    0.1841363960567091E+00   -0.2819844382809426E+01   -0.1612158196355998E-05   -0.1343427591393720E-09   -0.2061218556947964E-10   -0.6952841080654082E-12    0.1923986503102326E-08
 -0.3517   0.3887    0.2661826828787904E-01    0.3753800120632726E-02   -0.1365859510779602E-04    0.1901909036717245E+00   -0.3508170872455727E+01   -0.2008969103149327E-05   -0.2214896530072785E-09   -0.1837095753298712E-10   -0.6234873728416801E-12    0.1511864341618291E-08
 -0.3674   0.3615    0.2146707965592213E-01    0.4586205051671939E-02   -0.1479672610855756E-04    0.1954707417972446E+00   -0.4281072419411828E+01   -0.2455421097886902E-05   -0.3054581865225003E-09   -0.1424328710530887E-10   -0.5539457781367219E-12    0.1077192239757902E-08
 -0.3833   0.3339    0.1694717197399816E-01    0.5489258499190326E-02   -0.1554355107133049E-04    0.2007359777228990E+00   -0.5118321467191217E+01   -0.2939995442365041E-05   -0.3827931097100112E-09   -0.8184584954218366E-11   -0.4632960681760778E-12    0.6577974484556215E-09
 -0.3995   0.3060    0.1336048061290666E-01    0.6434615423002603E-02   -0.1581707007282404E-04    0.2064099292213223E+00   -0.5993426447425294E+01   -0.3447538993279099E-05   -0.4495344721466843E-09   -0.4024558464266192E-12   -0.4021366573070395E-12    0.2773678313937322E-09
 -0.4157   0.2778    0.1099034966820480E-01    0.7388785671749189E-02   -0.1557563408970242E-04    0.2127120927229012E+00   -0.6875214040030916E+01   -0.3960086883141800E-05   -0.5014553390580989E-09    0.8712836008228919E-11   -0.3370498324883897E-12   -0.5240104791054412E-10
 -0.4321   0.2495    0.1007901673355861E-01    0.8315008022617259E-02   -0.1477789612394840E-04    0.2197585754744252E+00   -0.7729566246441020E+01   -0.4457938798299127E-05   -0.5343821982140007E-09    0.1853547870744876E-10   -0.2636918461362825E-12   -0.3283528830777538E-09
 -0.4484   0.2211    0.1080458842695348E-01    0.9174537476788295E-02   -0.1339632159285235E-04    0.2276189245286468E+00   -0.8520631262096106E+01   -0.4920270209320381E-05   -0.5448053709555811E-09    0.2842939772484954E-10   -0.2270891807931719E-12   -0.5518255722161691E-09
 -0.4647   0.1929    0.1325870276358696E-01    0.9927028636259614E-02   -0.1137520586276888E-04    0.2363412243964059E+00   -0.9211170709921193E+01   -0.5325421722683559E-05   -0.5303064168349358E-09    0.3772221424114264E-10   -0.1839223218169650E-12   -0.7259193350594995E-09
 -0.4809   0.1650    0.1742474519864292E-01    0.1053045418235804E-01   -0.8652608005573935E-05    0.2459601520347964E+00   -0.9762523590842356E+01   -0.5650759520558765E-05   -0.4900553296494081E-09    0.4585526403033668E-10   -0.1639799407371356E-12   -0.8545045036140175E-09
 -0.4968   0.1374    0.2315601443894931E-01    0.1094152985908214E-01   -0.5153313806014877E-05    0.2564974640664039E+00   -0.1013500929419440E+02   -0.5872996946124273E-05   -0.4249960661173446E-09    0.5237410505287698E-10   -0.1611662192591012E-12   -0.9419964131646141E-09
 -0.5124   0.1103    0.3015695219881753E-01    0.1111789399784996E-01   -0.8474795410749876E-06    0.2679594639422231E+00   -0.1028999357226439E+02   -0.5969252718273284E-05   -0.3378702400323730E-09    0.5693517879379328E-10   -0.1713434082117882E-12   -0.9922889870894736E-09
 -0.5278   0.0838    0.3797499665519868E-01    0.1102294857908312E-01    0.4215069682184744E-05    0.2803334342660557E+00   -0.1019433099134721E+02   -0.5919768734308223E-05   -0.2331126923438287E-09    0.5931144464454974E-10   -0.1983309350084284E-12   -0.1009416827901788E-08
 -0.5427   0.0579    0.4601537045178193E-01    0.1063340835808130E-01    0.9832290844825759E-05    0.2935841168451683E+00   -0.9827305968068805E+01   -0.5711851124957356E-05   -0.1166350106773795E-09    0.5942191183549994E-10   -0.2177563684924166E-12   -0.9977118419629560E-09
 -0.5571   0.0330    0.5359009221657508E-01    0.9948104012860037E-02    0.1563608950805208E-04    0.3076510756299038E+00   -0.9188591634753001E+01   -0.5344764599646036E-05    0.4667190245388753E-11    0.5729372531959598E-10   -0.2493977246942336E-12   -0.9616518224092596E-09
 -0.5710   0.0089    0.6000437730112478E-01    0.8995121517075518E-02    0.2109982347747141E-04    0.3224475557441434E+00   -0.8304696486846156E+01   -0.4833451499396299E-05    0.1235185981274256E-09    0.5315464735033970E-10   -0.2338407245616736E-12   -0.9057759958741585E-09
 -0.5843  -0.0141    0.6466699742674940E-01    0.7833648858680804E-02    0.2563968606047326E-04    0.3378609462523380E+00   -0.7230457757547405E+01   -0.4209723831911873E-05    0.2332675094751657E-09    0.4738742731547063E-10   -0.2542965837903921E-12   -0.8342655438003943E-09
 -0.5969  -0.0360    0.6719510497059222E-01    0.6548087443891780E-02    0.2873910508189685E-04    0.3537541429737676E+00   -0.6043591999615041E+01   -0.3518924191723309E-05    0.3287370653470845E-09    0.4054540037046195E-10   -0.1996736109788344E-12   -0.7525948562264739E-09
 -0.6089  -0.0567    0.6747805932091284E-01    0.5234858634375121E-02    0.3009270021830622E-04    0.3699662877888394E+00   -0.4832540465701799E+01   -0.2813029367349814E-05    0.4069995659938819E-09    0.3326833253325390E-10   -0.2161604228945180E-12   -0.6644115917164850E-09
 -0.6200  -0.0761    0.6567782152769913E-01    0.3985774019102910E-02    0.2967049753638668E-04    0.3863111536436826E+00   -0.3681387206312876E+01   -0.2141439619731748E-05    0.4674234818646816E-09    0.2615443972509013E-10   -0.1909583602355269E-12   -0.5746034377474007E-09
 -0.6304  -0.0941    0.6216872691741076E-01    0.2873456871194924E-02    0.2770346689825354E-04    0.4025725279852705E+00   -0.2656542765090123E+01   -0.1543371963688828E-05    0.5113190773564646E-09    0.1966088403193567E-10   -0.1704469898555772E-12   -0.4858230380488937E-09
 -0.6400  -0.1106    0.5744349012417563E-01    0.1943294174091942E-02    0.2457802778803637E-04    0.4184984836867875E+00   -0.1799552245323756E+01   -0.1043198570636397E-05    0.5412381584579684E-09    0.1406542937676392E-10   -0.1846300889951635E-12   -0.4010282834976397E-09
 -0.6486  -0.1255    0.5201991661059262E-01    0.1213099458328335E-02    0.2070680373620864E-04    0.4337993880005301E+00   -0.1126685249860824E+01   -0.6506241750715870E-06    0.5601646507757962E-09    0.9502093556434943E-11   -0.1573463581650003E-12   -0.3220008808202390E-09
 -0.6563  -0.1389    0.4637408751291733E-01    0.6785465720733898E-03    0.1642544693844219E-04    0.4481556616934558E+00   -0.6339955553365678E+00   -0.3631974267960357E-06    0.5709816508492338E-09    0.5967313015248221E-11   -0.1826455653386461E-12   -0.2498524911270783E-09
 -0.6631  -0.1506    0.4090763814941423E-01    0.3204602712633861E-03    0.1195818882918564E-04    0.4612385586122768E+00   -0.3037232607129198E+00   -0.1707698738901726E-06    0.5762628187133689E-09    0.3400644349449422E-11   -0.2048500258311492E-12   -0.1858597060977463E-09
 -0.6688  -0.1606    0.3594137149697101E-01    0.1105705643533369E-03    0.7493265691491687E-05    0.4727407959428944E+00   -0.1096898213244768E+00   -0.5798758261301367E-07    0.5781214708344695E-09    0.1713355152199725E-11   -0.2061753545667955E-12   -0.1304507214056061E-09
 -0.6736  -0.1688    0.3171848930368695E-01    0.1386006388299450E-04    0.3347645067442003E-05    0.4824072129465741E+00   -0.1914180418921581E-01   -0.6337987239923677E-08    0.5783495730937727E-09    0.7757648690098762E-12   -0.2405645127545597E-12   -0.8346259013775059E-10
 -0.6773  -0.1752    0.2840194147818315E-01   -0.1051095838865403E-04    0.1424122348845386E-06    0.4900536322078968E+00    0.5734114780614503E-02    0.6418780963926832E-08    0.5783038522339488E-09    0.4119031504767889E-12   -0.2667180712401240E-12   -0.4767662176510812E-10
 -0.6799  -0.1798    0.2606203778616687E-01   -0.5221797399960514E-05   -0.1221210797988641E-05    0.4955671270682826E+00    0.4037330903230205E-02    0.2879111381619966E-08    0.5789830166951643E-09    0.3374999932304057E-12   -0.2985307313851937E-12   -0.2081388837324449E-10
 -0.6816  -0.1826    0.2467903110751186E-01   -0.2291383843797348E-06   -0.2290338363549182E-06    0.4988903395984705E+00    0.7534820799242268E-03    0.1950443838141141E-09    0.5802298681670606E-09    0.2068376394638582E-12   -0.1912684420568578E-12   -0.5395691705933903E-11
 -0.6821  -0.1835    0.2421943711608456E-01    0.0000000000000000E+00    0.0000000000000000E+00    0.5000000000000000E+00   -0.3729312407693502E-04    0.0000000000000000E+00    0.0000000000000000E+00    0.0000000000000000E+00    0.0000000000000000E+00    0.0000000000000000E+00
 -0.1793   0.6809    0.2511681582058058E-01    0.0000000000000000E+00    0.0000000000000000E+00   -0.5000000000000000E+00   -0.4851126350316285E-02    0.0000000000000000E+00    0.0000000000000000E+00    0.0000000000000000E+00    0.0000000000000000E+00    0.0000000000000000E+00
 -0.1798   0.6799    0.2556579693139651E-01    0.2547152544913637E-05   -0.7394588410747964E-05   -0.4948703752575015E+00   -0.9535698711207682E-02   -0.3548671302414996E-08    0.3493685609909369E-09   -0.1155107097212255E-11   -0.1537756033620497E-11    0.1468936994611370E-10
 -0.1814   0.6772    0.2687934661847777E-01    0.4174781203770995E-04   -0.4175085874780913E-04   -0.4795065987999757E+00   -0.2281211501402219E-01   -0.8008145820287826E-07    0.3471483447925472E-09   -0.3220167405296182E-11   -0.3777608434396562E-11    0.5923727914441956E-10
 -0.1841   0.6726    0.2898512197105613E-01    0.2100719011558013E-03   -0.9472996695051005E-04   -0.4540038344180510E+00   -0.5520739805369589E-01   -0.4521530339329477E-06    0.3435173465127228E-09   -0.3872376377889175E-11   -0.4730934394236996E-11    0.1335129940632784E-09
 -0.1878   0.6661    0.3182272291045793E-01    0.6011366019335414E-03   -0.1362436992934712E-03   -0.4185938299523743E+00   -0.1292126400189880E+00   -0.1331340135570815E-05    0.3402562259724462E-09   -0.2654900604914801E-11   -0.5018215010199611E-11    0.2374287606798919E-09
 -0.1926   0.6579    0.3532789771039001E-01    0.1223784751920714E-02   -0.1510770076930974E-03   -0.3737730775020832E+00   -0.2532614745851785E+00   -0.2721343662648157E-05    0.3380856150592138E-09   -0.5944897352172518E-12   -0.4933026209741342E-11    0.3717284084714390E-09
 -0.1983   0.6479    0.3936382302035997E-01    0.1988682384879901E-02   -0.1384664709445739E-03   -0.3204906875106269E+00   -0.4129451795809122E+00   -0.4411491078168690E-05    0.3368740980613794E-09    0.1098392210518995E-11   -0.4690414723285130E-11    0.5367273084311286E-09
 -0.2051   0.6362    0.4368055508318223E-01    0.2748374448473528E-02   -0.1056546231482147E-03   -0.2603453851009720E+00   -0.5783792263007167E+00   -0.6071618872357618E-05    0.3358359007554768E-09    0.1275632377506497E-11   -0.4340541814862320E-11    0.7328959591990092E-09
 -0.2128   0.6229    0.4791585110680765E-01    0.3353080776175571E-02   -0.6340264141977958E-04   -0.1956885449776930E+00   -0.7171816979595885E+00   -0.7372823170360312E-05    0.3336038216505965E-09   -0.8589934319402914E-12   -0.4001379089180190E-11    0.9607976914072225E-09