 title="result"
 variables="x","y","P","u","v","t","omega","psi","RES1","RES2","RES3","RES4"
zone,j= 49,i= 49,f=point
 -0.3851   0.5930    0.2512152914172255E-01    0.0000000000000000E+00    0.0000000000000000E+00   -0.5000000000000000E+00    0.0000000000000000E+00    0.0000000000000000E+00    0.0000000000000000E+00    0.0000000000000000E+00    0.0000000000000000E+00    0.0000000000000000E+00
 -0.3853   0.5920    0.2564134347318283E-01    0.0000000000000000E+00    0.0000000000000000E+00   -0.4957146305582633E+00   -0.6209258787743750E-04    0.0000000000000000E+00    0.0000000000000000E+00    0.0000000000000000E+00    0.0000000000000000E+00    0.0000000000000000E+00
 -0.3860   0.5888    0.2717465478431333E-01    0.0000000000000000E+00    0.0000000000000000E+00   -0.4828788982164168E+00   -0.4211736394681197E-02    0.0000000000000000E+00    0.0000000000000000E+00    0.0000000000000000E+00    0.0000000000000000E+00    0.0000000000000000E+00
 -0.3871   0.5836    0.2966180044370284E-01    0.0000000000000000E+00    0.0000000000000000E+00   -0.4615660057619432E+00   -0.1600899694421136E-01    0.0000000000000000E+00    0.0000000000000000E+00    0.0000000000000000E+00    0.0000000000000000E+00    0.0000000000000000E+00
 -0.3887   0.5764    0.3299259554685106E-01    0.0000000000000000E+00    0.0000000000000000E+00   -0.4319379305249264E+00   -0.2987316209722420E-01    0.0000000000000000E+00    0.0000000000000000E+00    0.0000000000000000E+00    0.0000000000000000E+00    0.0000000000000000E+00
 -0.3906   0.5671    0.3697118138651680E-01    0.0000000000000000E+00    0.0000000000000000E+00   -0.3943031435396407E+00   -0.3711121659642069E-01    0.0000000000000000E+00    0.0000000000000000E+00    0.0000000000000000E+00    0.0000000000000000E+00    0.0000000000000000E+00
 -0.3930   0.5558    0.4132428286322376E-01    0.0000000000000000E+00    0.0000000000000000E+00   -0.3491910699157806E+00   -0.3240405118743653E-01    0.0000000000000000E+00    0.0000000000000000E+00    0.0000000000000000E+00    0.0000000000000000E+00    0.0000000000000000E+00
 -0.3958   0.5426    0.4572033836057110E-01    0.0000000000000000E+00    0.0000000000000000E+00   -0.2974370991729141E+00   -0.1604209165423982E-01    0.0000000000000000E+00    0.0000000000000000E+00    0.0000000000000000E+00    0.0000000000000000E+00    0.0000000000000000E+00
 -0.3990   0.5275    0.4979426167592364E-01    0.0000000000000000E+00    0.0000000000000000E+00   -0.2402705443471591E+00    0.5391610388583637E-02    0.0000000000000000E+00    0.0000000000000000E+00    0.0000000000000000E+00    0.0000000000000000E+00    0.0000000000000000E+00
 -0.4026   0.5106    0.5317788545798640E-01    0.0000000000000000E+00    0.0000000000000000E+00   -0.1793904001966295E+00    0.1914961596774763E-01    0.0000000000000000E+00    0.0000000000000000E+00    0.0000000000000000E+00    0.0000000000000000E+00    0.0000000000000000E+00
 -0.4066   0.4920    0.5553726501166618E-01    0.0000000000000000E+00    0.0000000000000000E+00   -0.1169982545760303E+00    0.7022905320056597E-02    0.0000000000000000E+00    0.0000000000000000E+00    0.0000000000000000E+00    0.0000000000000000E+00    0.0000000000000000E+00
 -0.4109   0.4717    0.5661359091668201E-01    0.0000000000000000E+00    0.0000000000000000E+00   -0.5573993586774204E-01   -0.5237364402749813E-01    0.0000000000000000E+00    0.0000000000000000E+00    0.0000000000000000E+00    0.0000000000000000E+00    0.0000000000000000E+00
 -0.4156   0.4498    0.5625783792980924E-01    0.0000000000000000E+00    0.0000000000000000E+00    0.1500144435565400E-02   -0.1795821260159531E+00    0.0000000000000000E+00    0.0000000000000000E+00    0.0000000000000000E+00    0.0000000000000000E+00    0.0000000000000000E+00
 -0.4205   0.4264    0.5444742282839377E-01    0.0000000000000000E+00    0.0000000000000000E+00    0.5198530796438086E-01   -0.3901779507012803E+00    0.0000000000000000E+00    0.0000000000000000E+00    0.0000000000000000E+00    0.0000000000000000E+00    0.0000000000000000E+00
 -0.4258   0.4017    0.5128023327931664E-01    0.0000000000000000E+00    0.0000000000000000E+00    0.9365131178588629E-01   -0.6932742049538037E+00    0.0000000000000000E+00    0.0000000000000000E+00    0.0000000000000000E+00    0.0000000000000000E+00    0.0000000000000000E+00
 -0.4313   0.3757    0.4695190253372667E-01    0.0000000000000000E+00    0.0000000000000000E+00    0.1256065482512957E+00   -0.1093526330473095E+01    0.0000000000000000E+00    0.0000000000000000E+00    0.0000000000000000E+00    0.0000000000000000E+00    0.0000000000000000E+00
 -0.4371   0.3485    0.4172723478438570E-01    0.0000000000000000E+00    0.0000000000000000E+00    0.1483612388921652E+00   -0.1594330992009177E+01    0.0000000000000000E+00    0.0000000000000000E+00    0.0000000000000000E+00    0.0000000000000000E+00    0.0000000000000000E+00
 -0.4431   0.3203    0.3591449558368808E-01    0.0000000000000000E+00    0.0000000000000000E+00    0.1636124356981959E+00   -0.2198845822997797E+01    0.0000000000000000E+00    0.0000000000000000E+00    0.0000000000000000E+00    0.0000000000000000E+00    0.0000000000000000E+00
 -0.4493   0.2911    0.2984747902431197E-01    0.0000000000000000E+00    0.0000000000000000E+00    0.1736524421191460E+00   -0.2907678623420150E+01    0.0000000000000000E+00    0.0000000000000000E+00    0.0000000000000000E+00    0.0000000000000000E+00    0.0000000000000000E+00
 -0.4557   0.2612    0.2387630373502472E-01    0.0000000000000000E+00    0.0000000000000000E+00    0.1806974009553682E+00   -0.3714821126320798E+01    0.0000000000000000E+00    0.0000000000000000E+00    0.0000000000000000E+00    0.0000000000000000E+00    0.0000000000000000E+00
 -0.4622   0.2305    0.1836244272966747E-01    0.0000000000000000E+00    0.0000000000000000E+00    0.1864451000142554E+00   -0.4604298014845426E+01    0.0000000000000000E+00    0.0000000000000000E+00    0.0000000000000000E+00    0.0000000000000000E+00    0.0000000000000000E+00
 -0.4688   0.1994    0.1366949821730541E-01    0.0000000000000000E+00    0.0000000000000000E+00    0.1919709901355880E+00   -0.5549131142635845E+01    0.0000000000000000E+00    0.0000000000000000E+00    0.0000000000000000E+00    0.0000000000000000E+00    0.0000000000000000E+00
 -0.4755   0.1678    0.1014355482883537E-01    0.0000000000000000E+00    0.0000000000000000E+00    0.1978586541372000E+00   -0.6512826385320506E+01    0.0000000000000000E+00    0.0000000000000000E+00    0.0000000000000000E+00    0.0000000000000000E+00    0.0000000000000000E+00
 -0.4823   0.1359    0.8083677434563964E-02    0.0000000000000000E+00    0.0000000000000000E+00    0.2043944606224381E+00   -0.7452464654415292E+01    0.0000000000000000E+00    0.0000000000000000E+00    0.0000000000000000E+00    0.0000000000000000E+00    0.0000000000000000E+00
 -0.4891   0.1040    0.7708387260691511E-02    0.0000000000000000E+00    0.0000000000000000E+00    0.2117183756264344E+00   -0.8322092178919325E+01    0.0000000000000000E+00    0.0000000000000000E+00    0.0000000000000000E+00    0.0000000000000000E+00    0.0000000000000000E+00
 -0.4959   0.0720    0.9124400413010256E-02    0.0000000000000000E+00    0.0000000000000000E+00    0.2199074005742467E+00   -0.9075456620147065E+01    0.0000000000000000E+00    0.0000000000000000E+00    0.0000000000000000E+00    0.0000000000000000E+00    0.0000000000000000E+00
 -0.5026   0.0401    0.1230145168535666E-01    0.0000000000000000E+00    0.0000000000000000E+00    0.2290109288903273E+00   -0.9667936573065502E+01    0.0000000000000000E+00    0.0000000000000000E+00    0.0000000000000000E+00    0.0000000000000000E+00    0.0000000000000000E+00
 -0.5094   0.0085    0.1705502381049765E-01    0.0000000000000000E+00    0.0000000000000000E+00    0.2390616646707507E+00   -0.1005825939788950E+02    0.0000000000000000E+00    0.0000000000000000E+00    0.0000000000000000E+00    0.0000000000000000E+00    0.0000000000000000E+00
 -0.5160  -0.0226    0.2303948494993600E-01    0.0000000000000000E+00    0.0000000000000000E+00    0.2500765884406030E+00   -0.1021095570516012E+02    0.0000000000000000E+00    0.0000000000000000E+00    0.0000000000000000E+00    0.0000000000000000E+00    0.0000000000000000E+00
 -0.5225  -0.0533    0.2975673739876354E-01    0.0000000000000000E+00    0.0000000000000000E+00    0.2620545372408059E+00   -0.1010026281243563E+02    0.0000000000000000E+00    0.0000000000000000E+00    0.0000000000000000E+00    0.0000000000000000E+00    0.0000000000000000E+00
 -0.5289  -0.0832    0.3658757966739295E-01    0.0000000000000000E+00    0.0000000000000000E+00    0.2749730780104147E+00   -0.9715421145265797E+01    0.0000000000000000E+00    0.0000000000000000E+00    0.0000000000000000E+00    0.0000000000000000E+00    0.0000000000000000E+00
 -0.5351  -0.1124    0.4285113560133814E-01    0.0000000000000000E+00    0.0000000000000000E+00    0.2887859318012725E+00   -0.9066209822543071E+01    0.0000000000000000E+00    0.0000000000000000E+00    0.0000000000000000E+00    0.0000000000000000E+00    0.0000000000000000E+00
 -0.5411  -0.1406    0.4789017507672950E-01    0.0000000000000000E+00    0.0000000000000000E+00    0.3034216493405229E+00   -0.8186605427846533E+01    0.0000000000000000E+00    0.0000000000000000E+00    0.0000000000000000E+00    0.0000000000000000E+00    0.0000000000000000E+00
 -0.5468  -0.1678    0.5116819469239186E-01    0.0000000000000000E+00    0.0000000000000000E+00    0.3187837328173261E+00   -0.7134225328305462E+01    0.0000000000000000E+00    0.0000000000000000E+00    0.0000000000000000E+00    0.0000000000000000E+00    0.0000000000000000E+00
 -0.5524  -0.1938    0.5235377071612606E-01    0.0000000000000000E+00    0.0000000000000000E+00    0.3347517075035190E+00   -0.5984221216409710E+01    0.0000000000000000E+00    0.0000000000000000E+00    0.0000000000000000E+00    0.0000000000000000E+00    0.0000000000000000E+00
 -0.5576  -0.2185    0.5136628073878891E-01    0.0000000000000000E+00    0.0000000000000000E+00    0.3511819189977266E+00   -0.4818378086623852E+01    0.0000000000000000E+00    0.0000000000000000E+00    0.0000000000000000E+00    0.0000000000000000E+00    0.0000000000000000E+00
 -0.5626  -0.2419    0.4836857491767835E-01    0.0000000000000000E+00    0.0000000000000000E+00    0.3679065074115855E+00   -0.3712352000470946E+01    0.0000000000000000E+00    0.0000000000000000E+00    0.0000000000000000E+00    0.0000000000000000E+00    0.0000000000000000E+00
 -0.5672  -0.2637    0.4371165820448477E-01    0.0000000000000000E+00    0.0000000000000000E+00    0.3847296294254620E+00   -0.2724956520715191E+01    0.0000000000000000E+00    0.0000000000000000E+00    0.0000000000000000E+00    0.0000000000000000E+00    0.0000000000000000E+00
 -0.5715  -0.2841    0.3785338009673932E-01    0.0000000000000000E+00    0.0000000000000000E+00    0.4014218141749498E+00   -0.1892478596469747E+01    0.0000000000000000E+00    0.0000000000000000E+00    0.0000000000000000E+00    0.0000000000000000E+00    0.0000000000000000E+00
 -0.5755  -0.3027    0.3127828187865684E-01    0.0000000000000000E+00    0.0000000000000000E+00    0.4177158223992994E+00   -0.1228812646535678E+01    0.0000000000000000E+00    0.0000000000000000E+00    0.0000000000000000E+00    0.0000000000000000E+00    0.0000000000000000E+00
 -0.5791  -0.3196    0.2443861443936911E-01    0.0000000000000000E+00    0.0000000000000000E+00    0.4333090638720984E+00   -0.7299360309546944E+00    0.0000000000000000E+00    0.0000000000000000E+00    0.0000000000000000E+00    0.0000000000000000E+00    0.0000000000000000E+00
 -0.5823  -0.3347    0.1772339641587191E-01    0.0000000000000000E+00    0.0000000000000000E+00    0.4478767627110971E+00   -0.3801384663110178E+00    0.0000000000000000E+00    0.0000000000000000E+00    0.0000000000000000E+00    0.0000000000000000E+00    0.0000000000000000E+00
 -0.5851  -0.3479    0.1145078887769452E-01    0.0000000000000000E+00    0.0000000000000000E+00    0.4610960099211959E+00   -0.1573905767541131E+00    0.0000000000000000E+00    0.0000000000000000E+00    0.0000000000000000E+00    0.0000000000000000E+00    0.0000000000000000E+00
 -0.5875  -0.3592    0.5872837941739985E-02    0.0000000000000000E+00    0.0000000000000000E+00    0.4726751830181632E+00   -0.3641600736932814E-01    0.0000000000000000E+00    0.0000000000000000E+00    0.0000000000000000E+00    0.0000000000000000E+00    0.0000000000000000E+00
 -0.5895  -0.3685    0.1180505637698518E-02    0.0000000000000000E+00    0.0000000000000000E+00    0.4823792477673455E+00    0.1073864463229679E-01    0.0000000000000000E+00    0.0000000000000000E+00    0.0000000000000000E+00    0.0000000000000000E+00    0.0000000000000000E+00
 -0.5910  -0.3757   -0.2498509286083267E-02    0.0000000000000000E+00    0.0000000000000000E+00    0.4900421100262360E+00    0.1436610743040269E-01    0.0000000000000000E+00    0.0000000000000000E+00    0.0000000000000000E+00    0.0000000000000000E+00    0.0000000000000000E+00
 -0.5921  -0.3809   -0.5108133160938633E-02    0.0000000000000000E+00    0.0000000000000000E+00    0.4955627447766067E+00    0.4378329320559548E-02    0.0000000000000000E+00    0.0000000000000000E+00    0.0000000000000000E+00    0.0000000000000000E+00    0.0000000000000000E+00
 -0.5928  -0.3841   -0.6663819249627519E-02    0.0000000000000000E+00    0.0000000000000000E+00    0.4988892870296350E+00   -0.1063517600890147E-03    0.0000000000000000E+00    0.0000000000000000E+00    0.0000000000000000E+00    0.0000000000000000E+00    0.0000000000000000E+00
 -0.5930  -0.3851   -0.7184256524923903E-02    0.0000000000000000E+00    0.0000000000000000E+00    0.5000000000000000E+00    0.0000000000000000E+00    0.0000000000000000E+00    0.0000000000000000E+00    0.0000000000000000E+00    0.0000000000000000E+00    0.0000000000000000E+00
 -0.3841   0.5928    0.2523432815808593E-01    0.0000000000000000E+00    0.0000000000000000E+00   -0.5000000000000000E+00   -0.6226088123447929E-04    0.0000000000000000E+00    0.0000000000000000E+00    0.0000000000000000E+00    0.0000000000000000E+00    0.0000000000000000E+00
 -0.3843   0.5918    0.2575366697007729E-01    0.2014936090730410E-06   -0.2015862913576659E-06   -0.4957145290997587E+00   -0.5464533925592947E-03   -0.1360013017218689E-09    0.1025653988823150E-08    0.2913970605609995E-12    0.2791881309471833E-12   -0.9121950048616989E-11
 -0.3850   0.5886    0.2728650983717362E-01    0.4219233347971508E-05   -0.1052604202429861E-05   -0.4828784911989220E+00   -0.3818700769529821E-02   -0.2274950170141550E-08    0.1027654568863320E-08    0.5526980782766255E-12    0.3927110373003195E-12   -0.3571774430041752E-10
 -0.3861   0.5834    0.2977030242174530E-01    0.1547515518486930E-04   -0.1208324459637164E-05   -0.4615650850408091E+00   -0.1292033415622044E-01   -0.8606068004071465E-08    0.1030157042135327E-08    0.5495014165912693E-12    0.3867444559046973E-12   -0.7959078621860849E-10
 -0.3876   0.5761    0.3309247272039352E-01    0.2914464791366073E-04   -0.7635333798883809E-06   -0.4319362890283489E+00   -0.2462120228269028E-01   -0.1607657113064595E-07    0.1033147510902041E-08    0.1956768080901838E-12    0.4262146191535976E-12   -0.1414390826681711E-09
 -0.3896   0.5669    0.3705944687088426E-01    0.3656043740742676E-04   -0.9928263386185346E-07   -0.3943005836090607E+00   -0.3122150459921589E-01   -0.2013910112491592E-07    0.1036588956489747E-08   -0.6903939225866296E-12    0.4522665878956000E-12   -0.2197431334116651E-09
 -0.3920   0.5556    0.4139969369764882E-01    0.3208956396816129E-04    0.4799165048619411E-06   -0.3491874052034790E+00   -0.2759596755578478E-01   -0.1762197149581699E-07    0.1039828829594788E-08   -0.2147802768970308E-11    0.4581964148375750E-12   -0.3131385636900852E-09
 -0.3948   0.5424    0.4578283083206497E-01    0.1595470883704209E-04    0.7692032735488795E-06   -0.2974321572750974E+00   -0.1381505836214444E-01   -0.8759559427688965E-08    0.1042311401034876E-08   -0.4061215773398796E-11    0.4904856902576693E-12   -0.4177597920373977E-09
 -0.3980   0.5273    0.4984459063926865E-01   -0.4979368099937523E-05    0.6589809649384521E-06   -0.2402641835635627E+00    0.3847939004541732E-02    0.2817320181282475E-08    0.1043638652277815E-08   -0.6221916211412992E-11    0.4487707948308550E-12   -0.5258846413891405E-09
 -0.4016   0.5104    0.5321752230524868E-01   -0.1729931713449186E-04    0.8359737668929830E-07   -0.1793825495633767E+00    0.1310562156551797E-01    0.9828298605052973E-08    0.1043732558822681E-08   -0.8388886807431106E-11    0.4474455338578445E-12   -0.6239888536430094E-09
 -0.4056   0.4917    0.5556821680941540E-01   -0.1808309100154541E-05   -0.9675546805306875E-06   -0.1169889764303894E+00   -0.3713611019401952E-02    0.1991772259574872E-08    0.1042601670579388E-08   -0.1036641605889344E-10    0.4343296555742171E-12   -0.6919211661959856E-09
 -0.4099   0.4714    0.5663814416442381E-01    0.6407077057558689E-04   -0.2429666954308226E-05   -0.5572949860915357E-01   -0.6738938590929504E-01   -0.3287072003026642E-07    0.1040004295356500E-08   -0.1203910582336931E-10    0.4201049230712073E-12   -0.7024138215516729E-09
 -0.4145   0.4496    0.5627818883894507E-01    0.2020724422428171E-03   -0.4155542450086329E-05    0.1511211924292555E-02   -0.1979946465664744E+00   -0.1064086402336184E-06    0.1034926067587649E-08   -0.1337445432181283E-10    0.3523709102282169E-12   -0.6230097965298498E-09
 -0.4195   0.4262    0.5446552648958842E-01    0.4287490579951686E-03   -0.5971331978840575E-05    0.5199622890047430E-01   -0.4108703855807804E+00   -0.2275281095179652E-06    0.1025250597960770E-08   -0.1438112823270998E-10    0.2954511635344659E-12   -0.4228196404110207E-09
 -0.4247   0.4015    0.5129788757725618E-01    0.7538530828238281E-03   -0.7753689327864961E-05    0.9366119034132464E-01   -0.7151316435155430E+00   -0.4014304756954645E-06    0.1007673108149865E-08   -0.1506725993971614E-10    0.2475936122792177E-12   -0.8319450683913487E-10
 -0.4303   0.3754    0.4697095722741474E-01    0.1182378606540557E-02   -0.9472419029929572E-05    0.1256146089856489E+00   -0.1115449825485323E+01   -0.6308030995729298E-06    0.9781642267003843E-09   -0.1540503835606444E-10    0.1718417075302625E-12    0.3899833997400570E-09
 -0.4360   0.3483    0.4174953846964360E-01    0.1717869271945345E-02   -0.1115225131155297E-04    0.1483670737069782E+00   -0.1615053101863790E+01   -0.9175466656073918E-06    0.9329371962463195E-09   -0.1531345189542677E-10    0.7638334409421077E-13    0.9603587647344369E-09
 -0.4420   0.3200    0.3594155909698642E-01    0.2363466817606118E-02   -0.1280103553441960E-04    0.1636161089861802E+00   -0.2216649924312879E+01   -0.1263395145491158E-05    0.8695061580465957E-09   -0.1466902294078309E-10   -0.5252742685257772E-14    0.1567212328662526E-08
 -0.4482   0.2909    0.2987999046328631E-01    0.3119476789382935E-02   -0.1435711777639649E-04    0.1736543864414732E+00   -0.2920204449164968E+01   -0.1668566069260605E-05    0.7875321957062642E-09   -0.1330474966310113E-10   -0.1183358966372339E-12    0.2143157103173809E-08
 -0.4546   0.2609    0.2391382254359994E-01    0.3979103291332107E-02   -0.1569132494381518E-04    0.1806981840422090E+00   -0.3719026479684423E+01   -0.2129491951248393E-05    0.6887773199015790E-09   -0.1100247323804204E-10   -0.2188110803658105E-12    0.2634444305066319E-08
 -0.4611   0.2303    0.1840333875385189E-01    0.4924959191113258E-02   -0.1664033123141730E-04    0.1864452151800920E+00   -0.4596608763345346E+01   -0.2636913505572610E-05    0.5771199212967204E-09   -0.7511515714986317E-11   -0.3426148253993233E-12    0.3012813557879204E-08
 -0.4677   0.1991    0.1371115884897301E-01    0.5928039843871923E-02   -0.1705257653148623E-04    0.1919707633904189E+00   -0.5525742409811343E+01   -0.3175329111174591E-05    0.4579937262771949E-09   -0.2591309111732443E-11   -0.4164585343247040E-12    0.3274592660831160E-08
 -0.4745   0.1676    0.1018268625495424E-01    0.6949363063659117E-02   -0.1681679496293972E-04    0.1978582568139162E+00   -0.6470094395206281E+01   -0.3723857676154201E-05    0.3379427987448835E-09    0.3867781095401313E-11   -0.4932443342653414E-12    0.3432246058979876E-08
 -0.4812   0.1357    0.8116629809396992E-02    0.7943286995823704E-02   -0.1587225282068782E-04    0.2043939649754470E+00   -0.7387316249968574E+01   -0.4258012445083496E-05    0.2241624490195715E-09    0.1174596531150485E-10   -0.5554307014321580E-12    0.3504936347230314E-08
 -0.4880   0.1037    0.7731365021542948E-02    0.8861118981382844E-02   -0.1419586346398912E-04    0.2117178048851737E+00   -0.8232392151802046E+01   -0.4751643488461030E-05    0.1237467524284330E-09    0.2069425186768115E-10   -0.5506428646384620E-12    0.3511008310475017E-08
 -0.4948   0.0717    0.9133594164526634E-02    0.9654014260063690E-02   -0.1178666722490232E-04    0.2199067584886852E+00   -0.8960323837919294E+01   -0.5178481125593446E-05    0.4313015569690215E-10    0.3010969251704410E-10   -0.5391243007579760E-12    0.3466130445162197E-08
 -0.5016   0.0399    0.1229308031182345E-01    0.1027501531187358E-01   -0.8652728481736847E-05    0.2290102132562465E+00   -0.9528003397285538E+01   -0.5513252327877059E-05   -0.1301500920924958E-10    0.3925026970108547E-10   -0.4271236142550094E-12    0.3382225249870530E-08
 -0.5083   0.0083    0.1702542881360108E-01    0.1068086715935703E-01   -0.4818600985469894E-05    0.2390608726493452E+00   -0.9895896856173685E+01   -0.5732629933225603E-05   -0.4221101072843236E-10    0.4729400204794842E-10   -0.3195742281913994E-12    0.3268640938643153E-08
 -0.5149  -0.0228    0.2298530908524634E-01    0.1083460520418114E-01   -0.3461083401278563E-06    0.2500757185704596E+00   -0.1003041237560234E+02   -0.5816658614913730E-05   -0.4502480517327295E-10    0.5341560527227784E-10   -0.1612766994604775E-12    0.3131528356070667E-08
 -0.5214  -0.0535    0.2967530361544704E-01    0.1070965126076146E-01    0.4628845675770879E-05    0.2620535901553260E+00   -0.9907663659889652E+01   -0.5750921169213506E-05   -0.2499804356570490E-10    0.5693590043875929E-10    0.4208092208024539E-13    0.2976123684300669E-08
 -0.5278  -0.0834    0.3647739100161550E-01    0.1029534120555227E-01    0.9867760376811464E-05    0.2749720563968570E+00   -0.9518483254107483E+01   -0.5529571583040599E-05    0.1148901807024316E-10    0.5737010866369019E-10    0.2222250161665329E-12    0.2805932016250456E-08
 -0.5340  -0.1126    0.4271245135013495E-01    0.9602660620701940E-02    0.1501806228704452E-04    0.2887848396366480E+00   -0.8873622187055133E+01   -0.5158381478480548E-05    0.5591882859534714E-10    0.5458156149273918E-10    0.4550665400060439E-12    0.2623888054748003E-08
 -0.5400  -0.1408    0.4772540036820029E-01    0.8667976818670287E-02    0.1964647992927686E-04    0.3034204904643671E+00   -0.8007039875814595E+01   -0.4656837891691422E-05    0.9925540944699662E-10    0.4880396087258987E-10    0.6496192472837947E-12    0.2432227544368892E-08
 -0.5458  -0.1680    0.5098194745081315E-01    0.7552344077518992E-02    0.2330908064434071E-04    0.3187825092104649E+00   -0.6975189461380983E+01   -0.4057710723848239E-05    0.1334259230878487E-09    0.4070543901946166E-10    0.8427009090539173E-12    0.2232973243809777E-08
 -0.5513  -0.1940    0.5215242197843064E-01    0.6335026883158268E-02    0.2565342381014717E-04    0.3347504180850305E+00   -0.5850992774597136E+01   -0.3403665815768563E-05    0.1530850862740962E-09    0.3132372139447170E-10    0.9885703367018550E-12    0.2027541278967759E-08
 -0.5566  -0.2187    0.5115710939697238E-01    0.5102058440076859E-02    0.2650231546653798E-04    0.3511805600802098E+00   -0.4713402665174472E+01   -0.2740994630722281E-05    0.1564686019639439E-09    0.2176570035317127E-10    0.1034131114074910E-11    0.1817843814713727E-08
 -0.5615  -0.2421    0.4815868134964604E-01    0.3932906913541273E-02    0.2589756297995595E-04    0.3679050758647804E+00   -0.3635212663437062E+01   -0.2112541048387779E-05    0.1453254253047653E-09    0.1310690445066598E-10    0.1099842439344911E-11    0.1606574208737332E-08
 -0.5662  -0.2640    0.4350706560249772E-01    0.2889308301752130E-02    0.2406797744049089E-04    0.3847281288003000E+00   -0.2672958612860279E+01   -0.1551527152151263E-05    0.1238722041607687E-09    0.6083800130340933E-11    0.1104769054016685E-11    0.1395490426339685E-08
 -0.5705  -0.2843    0.3765846716324795E-01    0.2009357504588100E-02    0.2135609803690521E-04    0.4014202625347608E+00   -0.1861504528277270E+01   -0.1078527046245762E-05    0.9728734484681922E-10    0.1046690512040982E-11    0.1060720955514682E-11    0.1188216440170531E-08
 -0.5745  -0.3029    0.3109576373882816E-01    0.1307656133497895E-02    0.1811328021622850E-04    0.4177142588776175E+00   -0.1214256576974749E+01   -0.7013465009428354E-06    0.7029819087955858E-10   -0.2042380153888246E-11    0.1023681139855626E-11    0.9878726673490101E-09
 -0.5781  -0.3198    0.2426982998849955E-01    0.7799843245069405E-03    0.1463058121819531E-04    0.4333075500407316E+00   -0.7273280368825620E+00   -0.4177823154611848E-06    0.4632173117302685E-10   -0.3493710529212102E-11    0.1002878335931712E-11    0.7975597647591481E-09
 -0.5813  -0.3349    0.1756884623974110E-01    0.4097787276944712E-03    0.1109326466868253E-04    0.4478753757207371E+00   -0.3855207079639825E+00   -0.2188368601584411E-06    0.2725502462608276E-10   -0.3769387579843908E-11    0.9602735273617213E-12    0.6216743318049334E-09
 -0.5841  -0.3481    0.1131045113650281E-01    0.1737198393611125E-03    0.7618757597929333E-05    0.4610948273015172E+00   -0.1672546158805758E+00   -0.9208868885450947E-07    0.1348366730768991E-10   -0.3347704058409562E-11    0.9574702142245428E-12    0.4629670067451963E-09
 -0.5865  -0.3594    0.5746194570875053E-02    0.4490295189060243E-04    0.4315097456695022E-05    0.4726742630071274E+00   -0.4760176607095178E-01   -0.2297217618971027E-07    0.4473798068116430E-11   -0.2655733272183269E-11    0.9386796895327620E-12    0.3249507477334768E-09
 -0.5884  -0.3687    0.1065857290629469E-02   -0.6471221233561179E-05    0.1444595903647616E-05    0.4823786122181321E+00    0.1255520969049127E-02    0.4308931452924137E-08   -0.1176602652114278E-11   -0.2006034227619580E-11    0.9499562594883493E-12    0.2091539242146667E-09
 -0.5900  -0.3759   -0.2605231788262856E-02   -0.1258957380790243E-04   -0.5573975005294531E-06    0.4900417373251527E+00    0.9012839929041568E-02    0.7284026395969283E-08   -0.4955217551387558E-11   -0.1567825730353078E-11    0.9305681225590945E-12    0.1181909821748595E-09
 -0.5911  -0.3812   -0.5214428500899621E-02   -0.4298411941617785E-05   -0.1104320465495508E-05    0.4955625765174603E+00    0.3742740428661197E-02    0.2309490767957429E-08   -0.9032269940659199E-11   -0.1301288070354456E-11    0.9781351076321165E-12    0.5292493461712955E-10
 -0.5918  -0.3843   -0.6772434281767830E-02   -0.1397805512472735E-06   -0.1400032432637754E-06    0.4988892448277700E+00    0.5863155680799475E-03    0.1200626572807304E-09   -0.1353513752900409E-10   -0.6897187898938228E-12    0.6891334291408979E-12    0.1297874318868103E-10
 -0.5920  -0.3853   -0.7292995763110573E-02    0.0000000000000000E+00    0.0000000000000000E+00    0.5000000000000000E+00   -0.1058191586151191E-03    0.0000000000000000E+00    0.0000000000000000E+00    0.0000000000000000E+00    0.0000000000000000E+00    0.0000000000000000E+00
 -0.3809   0.5921    0.2556930152623032E-01    0.0000000000000000E+00    0.0000000000000000E+00   -0.5000000000000000E+00   -0.4211263049430473E-02    0.0000000000000000E+00    0.0000000000000000E+00    0.0000000000000000E+00    0.0000000000000000E+00    0.0000000000000000E+00
 -0.3812   0.5911    0.2608625313964840E-01    0.1052045473831366E-05   -0.4218574187104178E-05   -0.4957130188185054E+00   -0.3817870880500803E-02   -0.2274600494414932E-08    0.1027400777951423E-08    0.3986343048191510E-12    0.4908528011132729E-12   -0.8809869283740723E-11
 -0.3818   0.5880    0.2761481062801899E-01    0.1273508572119615E-04   -0.1273773275134720E-04   -0.4828724430068738E+00   -0.3405325158559253E-02   -0.3112002412424888E-07    0.1028234066467737E-08    0.1225038733648764E-11    0.1229736147981275E-11   -0.3562800922340958E-10
 -0.3829   0.5827    0.3008867011474697E-01    0.4522759633311126E-04   -0.1584790784946419E-04   -0.4615514364920462E+00   -0.5847496751834893E-02   -0.1118545356818867E-06    0.1030091868574334E-08    0.1432466124884346E-11    0.1691671108750015E-11   -0.7969747431446628E-10
 -0.3845   0.5755    0.3338874556279268E-01    0.8760542047166450E-04   -0.1071385151653312E-04   -0.4319119670527060E+00   -0.1162270520885050E-01   -0.2136495454382471E-06    0.1032767543360236E-08    0.2141585520032407E-12    0.2112948271210113E-11   -0.1412618806651000E-09
 -0.3865   0.5662    0.3732415471094470E-01    0.1130386345179183E-03   -0.1711159288195214E-05   -0.3942625795822665E+00   -0.1631217626664595E-01   -0.2721026593341882E-06    0.1035938709164144E-08   -0.3007085899731088E-11    0.2453701521479279E-11   -0.2197221155020301E-09
 -0.3888   0.5549    0.4162805214366600E-01    0.1011479165108261E-03    0.6372978117818484E-05   -0.3491328269977585E+00   -0.1560057921988916E-01   -0.2411261277555340E-06    0.1039057354046413E-08   -0.8387263106257592E-11    0.2665781657917865E-11   -0.3132954069784422E-09
 -0.3917   0.5417    0.4597373097912005E-01    0.5218763748815303E-04    0.1031321670812193E-04   -0.2973583262148749E+00   -0.9195527929682444E-02   -0.1219249984844216E-06    0.1041530670736757E-08   -0.1553729670963899E-10    0.2718210639213181E-11   -0.4179391555059198E-09
 -0.3949   0.5266    0.4999964713551946E-01   -0.8404872659570432E-05    0.8228938217253093E-05   -0.2401689497257070E+00   -0.2411074062641069E-02    0.2938200685895677E-07    0.1042989552797052E-08   -0.2368230524879555E-10    0.2643542502955842E-11   -0.5259855676009728E-09