 title="result"
 variables="x","y","P","u","v","t","omega","psi","RES1","RES2","RES3","RES4"
zone,j= 49,i= 49,f=point
 -0.2534   0.6601    0.2504775572815680E-01    0.0000000000000000E+00    0.0000000000000000E+00   -0.5000000000000000E+00    0.0000000000000000E+00    0.0000000000000000E+00    0.0000000000000000E+00    0.0000000000000000E+00    0.0000000000000000E+00    0.0000000000000000E+00
 -0.2538   0.6592    0.2553399211323310E-01    0.0000000000000000E+00    0.0000000000000000E+00   -0.4951439850736519E+00    0.3353900937275631E-03    0.0000000000000000E+00    0.0000000000000000E+00    0.0000000000000000E+00    0.0000000000000000E+00    0.0000000000000000E+00
 -0.2551   0.6562    0.2694334127741597E-01    0.0000000000000000E+00    0.0000000000000000E+00   -0.4805995630076772E+00   -0.4526059773623968E-02    0.0000000000000000E+00    0.0000000000000000E+00    0.0000000000000000E+00    0.0000000000000000E+00    0.0000000000000000E+00
 -0.2573   0.6514    0.2919878411522797E-01    0.0000000000000000E+00    0.0000000000000000E+00   -0.4564549204430371E+00   -0.3705985768743179E-01    0.0000000000000000E+00    0.0000000000000000E+00    0.0000000000000000E+00    0.0000000000000000E+00    0.0000000000000000E+00
 -0.2603   0.6446    0.3224468377612497E-01    0.0000000000000000E+00    0.0000000000000000E+00   -0.4229182304144778E+00   -0.1119221416565995E+00    0.0000000000000000E+00    0.0000000000000000E+00    0.0000000000000000E+00    0.0000000000000000E+00    0.0000000000000000E+00
 -0.2642   0.6359    0.3598323667440773E-01    0.0000000000000000E+00    0.0000000000000000E+00   -0.3804194514564974E+00   -0.2239785837622955E+00    0.0000000000000000E+00    0.0000000000000000E+00    0.0000000000000000E+00    0.0000000000000000E+00    0.0000000000000000E+00
 -0.2689   0.6254    0.4022838404777161E-01    0.0000000000000000E+00    0.0000000000000000E+00   -0.3297570003650513E+00   -0.3541388541623216E+00    0.0000000000000000E+00    0.0000000000000000E+00    0.0000000000000000E+00    0.0000000000000000E+00    0.0000000000000000E+00
 -0.2744   0.6130    0.4469464300213542E-01    0.0000000000000000E+00    0.0000000000000000E+00   -0.2722579482993107E+00   -0.4768263953803397E+00    0.0000000000000000E+00    0.0000000000000000E+00    0.0000000000000000E+00    0.0000000000000000E+00    0.0000000000000000E+00
 -0.2807   0.5989    0.4900601244559335E-01    0.0000000000000000E+00    0.0000000000000000E+00   -0.2098858952486729E+00   -0.5688357720022741E+00    0.0000000000000000E+00    0.0000000000000000E+00    0.0000000000000000E+00    0.0000000000000000E+00    0.0000000000000000E+00
 -0.2877   0.5832    0.5273351021056733E-01    0.0000000000000000E+00    0.0000000000000000E+00   -0.1452185056769841E+00   -0.6183616448717810E+00    0.0000000000000000E+00    0.0000000000000000E+00    0.0000000000000000E+00    0.0000000000000000E+00    0.0000000000000000E+00
 -0.2954   0.5658    0.5545636133850372E-01    0.0000000000000000E+00    0.0000000000000000E+00   -0.8124912648962505E-01   -0.6322461313478006E+00    0.0000000000000000E+00    0.0000000000000000E+00    0.0000000000000000E+00    0.0000000000000000E+00    0.0000000000000000E+00
 -0.3039   0.5468    0.5684023468554258E-01    0.0000000000000000E+00    0.0000000000000000E+00   -0.2103604983369363E-01   -0.6373038246367363E+00    0.0000000000000000E+00    0.0000000000000000E+00    0.0000000000000000E+00    0.0000000000000000E+00    0.0000000000000000E+00
 -0.3130   0.5264    0.5670422610962512E-01    0.0000000000000000E+00    0.0000000000000000E+00    0.3271553371727166E-01   -0.6729290903475096E+00    0.0000000000000000E+00    0.0000000000000000E+00    0.0000000000000000E+00    0.0000000000000000E+00    0.0000000000000000E+00
 -0.3227   0.5045    0.5504689402231160E-01    0.0000000000000000E+00    0.0000000000000000E+00    0.7803995194063128E-01   -0.7777741541236217E+00    0.0000000000000000E+00    0.0000000000000000E+00    0.0000000000000000E+00    0.0000000000000000E+00    0.0000000000000000E+00
 -0.3330   0.4814    0.5201827247707348E-01    0.0000000000000000E+00    0.0000000000000000E+00    0.1139891260534942E+00   -0.9786338922372075E+00    0.0000000000000000E+00    0.0000000000000000E+00    0.0000000000000000E+00    0.0000000000000000E+00    0.0000000000000000E+00
 -0.3438   0.4571    0.4786114533948532E-01    0.0000000000000000E+00    0.0000000000000000E+00    0.1407418730586933E+00   -0.1288170010554632E+01    0.0000000000000000E+00    0.0000000000000000E+00    0.0000000000000000E+00    0.0000000000000000E+00    0.0000000000000000E+00
 -0.3551   0.4318    0.4285767915461042E-01    0.0000000000000000E+00    0.0000000000000000E+00    0.1594915706833557E+00   -0.1709990835363245E+01    0.0000000000000000E+00    0.0000000000000000E+00    0.0000000000000000E+00    0.0000000000000000E+00    0.0000000000000000E+00
 -0.3668   0.4054    0.3730231090146176E-01    0.0000000000000000E+00    0.0000000000000000E+00    0.1721054249302698E+00   -0.2244111269580282E+01    0.0000000000000000E+00    0.0000000000000000E+00    0.0000000000000000E+00    0.0000000000000000E+00    0.0000000000000000E+00
 -0.3789   0.3782    0.3149597504648694E-01    0.0000000000000000E+00    0.0000000000000000E+00    0.1806485730436382E+00   -0.2888109920686917E+01    0.0000000000000000E+00    0.0000000000000000E+00    0.0000000000000000E+00    0.0000000000000000E+00    0.0000000000000000E+00
 -0.3914   0.3502    0.2574938172728357E-01    0.0000000000000000E+00    0.0000000000000000E+00    0.1869481634900472E+00   -0.3634834673575269E+01    0.0000000000000000E+00    0.0000000000000000E+00    0.0000000000000000E+00    0.0000000000000000E+00    0.0000000000000000E+00
 -0.4041   0.3216    0.2038539392114917E-01    0.0000000000000000E+00    0.0000000000000000E+00    0.1923491899772166E+00   -0.4469718115175377E+01    0.0000000000000000E+00    0.0000000000000000E+00    0.0000000000000000E+00    0.0000000000000000E+00    0.0000000000000000E+00
 -0.4171   0.2925    0.1573498191076977E-01    0.0000000000000000E+00    0.0000000000000000E+00    0.1976944040590067E+00   -0.5369716727058624E+01    0.0000000000000000E+00    0.0000000000000000E+00    0.0000000000000000E+00    0.0000000000000000E+00    0.0000000000000000E+00
 -0.4302   0.2630    0.1212322714407268E-01    0.0000000000000000E+00    0.0000000000000000E+00    0.2034461762360981E+00   -0.6304174055050222E+01    0.0000000000000000E+00    0.0000000000000000E+00    0.0000000000000000E+00    0.0000000000000000E+00    0.0000000000000000E+00
 -0.4435   0.2332    0.9846739205303403E-02    0.0000000000000000E+00    0.0000000000000000E+00    0.2098387279180964E+00   -0.7236955951752950E+01    0.0000000000000000E+00    0.0000000000000000E+00    0.0000000000000000E+00    0.0000000000000000E+00    0.0000000000000000E+00
 -0.4568   0.2034    0.9146709581747502E-02    0.0000000000000000E+00    0.0000000000000000E+00    0.2169926480205405E+00   -0.8128796875134425E+01    0.0000000000000000E+00    0.0000000000000000E+00    0.0000000000000000E+00    0.0000000000000000E+00    0.0000000000000000E+00
 -0.4701   0.1735    0.1018245832518223E-01    0.0000000000000000E+00    0.0000000000000000E+00    0.2249784720850159E+00   -0.8939026709260219E+01    0.0000000000000000E+00    0.0000000000000000E+00    0.0000000000000000E+00    0.0000000000000000E+00    0.0000000000000000E+00
 -0.4833   0.1437    0.1300746501359601E-01    0.0000000000000000E+00    0.0000000000000000E+00    0.2338440231990108E+00   -0.9626415332837768E+01    0.0000000000000000E+00    0.0000000000000000E+00    0.0000000000000000E+00    0.0000000000000000E+00    0.0000000000000000E+00
 -0.4964   0.1143    0.1754819782089372E-01    0.0000000000000000E+00    0.0000000000000000E+00    0.2436228967740195E+00   -0.1014963995241060E+02    0.0000000000000000E+00    0.0000000000000000E+00    0.0000000000000000E+00    0.0000000000000000E+00    0.0000000000000000E+00
 -0.5094   0.0851    0.2358615950203232E-01    0.0000000000000000E+00    0.0000000000000000E+00    0.2543349059008230E+00   -0.1046835462211197E+02    0.0000000000000000E+00    0.0000000000000000E+00    0.0000000000000000E+00    0.0000000000000000E+00    0.0000000000000000E+00
 -0.5221   0.0565    0.3074714059593181E-01    0.0000000000000000E+00    0.0000000000000000E+00    0.2659835119163348E+00   -0.1054596112570219E+02    0.0000000000000000E+00    0.0000000000000000E+00    0.0000000000000000E+00    0.0000000000000000E+00    0.0000000000000000E+00
 -0.5346   0.0286    0.3850584429854718E-01    0.0000000000000000E+00    0.0000000000000000E+00    0.2785523720554642E+00   -0.1035467581699667E+02    0.0000000000000000E+00    0.0000000000000000E+00    0.0000000000000000E+00    0.0000000000000000E+00    0.0000000000000000E+00
 -0.5467   0.0013    0.4621668777933622E-01    0.0000000000000000E+00    0.0000000000000000E+00    0.2920021219934229E+00   -0.9882521092195608E+01    0.0000000000000000E+00    0.0000000000000000E+00    0.0000000000000000E+00    0.0000000000000000E+00    0.0000000000000000E+00
 -0.5585  -0.0250    0.5317822693419809E-01    0.0000000000000000E+00    0.0000000000000000E+00    0.3062681885348178E+00   -0.9140486359067763E+01    0.0000000000000000E+00    0.0000000000000000E+00    0.0000000000000000E+00    0.0000000000000000E+00    0.0000000000000000E+00
 -0.5698  -0.0504    0.5872807849679340E-01    0.0000000000000000E+00    0.0000000000000000E+00    0.3212601195617962E+00   -0.8167036115639599E+01    0.0000000000000000E+00    0.0000000000000000E+00    0.0000000000000000E+00    0.0000000000000000E+00    0.0000000000000000E+00
 -0.5806  -0.0747    0.6234962284550160E-01    0.0000000000000000E+00    0.0000000000000000E+00    0.3368623434724174E+00   -0.7027039158635177E+01    0.0000000000000000E+00    0.0000000000000000E+00    0.0000000000000000E+00    0.0000000000000000E+00    0.0000000000000000E+00
 -0.5909  -0.0978    0.6375978498590548E-01    0.0000000000000000E+00    0.0000000000000000E+00    0.3529354650346116E+00   -0.5803828008255010E+01    0.0000000000000000E+00    0.0000000000000000E+00    0.0000000000000000E+00    0.0000000000000000E+00    0.0000000000000000E+00
 -0.6006  -0.1196    0.6294818444883796E-01    0.0000000000000000E+00    0.0000000000000000E+00    0.3693165217807866E+00   -0.4585856782195831E+01    0.0000000000000000E+00    0.0000000000000000E+00    0.0000000000000000E+00    0.0000000000000000E+00    0.0000000000000000E+00
 -0.6097  -0.1401    0.6015479323805874E-01    0.0000000000000000E+00    0.0000000000000000E+00    0.3858166771594075E+00   -0.3452064750502441E+01    0.0000000000000000E+00    0.0000000000000000E+00    0.0000000000000000E+00    0.0000000000000000E+00    0.0000000000000000E+00
 -0.6181  -0.1590    0.5579767211588741E-01    0.0000000000000000E+00    0.0000000000000000E+00    0.4022161708199972E+00   -0.2460632988908285E+01    0.0000000000000000E+00    0.0000000000000000E+00    0.0000000000000000E+00    0.0000000000000000E+00    0.0000000000000000E+00
 -0.6259  -0.1764    0.5037977437305509E-01    0.0000000000000000E+00    0.0000000000000000E+00    0.4182589203997260E+00   -0.1644230495910415E+01    0.0000000000000000E+00    0.0000000000000000E+00    0.0000000000000000E+00    0.0000000000000000E+00    0.0000000000000000E+00
 -0.6329  -0.1922    0.4440572983161930E-01    0.0000000000000000E+00    0.0000000000000000E+00    0.4336517708593861E+00   -0.1011766871239532E+01    0.0000000000000000E+00    0.0000000000000000E+00    0.0000000000000000E+00    0.0000000000000000E+00    0.0000000000000000E+00
 -0.6392  -0.2063    0.3832738821221149E-01    0.0000000000000000E+00    0.0000000000000000E+00    0.4480738980884647E+00   -0.5543508772894014E+00    0.0000000000000000E+00    0.0000000000000000E+00    0.0000000000000000E+00    0.0000000000000000E+00    0.0000000000000000E+00
 -0.6447  -0.2186    0.3252100659655053E-01    0.0000000000000000E+00    0.0000000000000000E+00    0.4611986536500143E+00   -0.2519350918292165E+00    0.0000000000000000E+00    0.0000000000000000E+00    0.0000000000000000E+00    0.0000000000000000E+00    0.0000000000000000E+00
 -0.6493  -0.2292    0.2728598686125886E-01    0.0000000000000000E+00    0.0000000000000000E+00    0.4727238817144776E+00   -0.7806122412492776E-01    0.0000000000000000E+00    0.0000000000000000E+00    0.0000000000000000E+00    0.0000000000000000E+00    0.0000000000000000E+00
 -0.6532  -0.2378    0.2285015552696583E-01    0.0000000000000000E+00    0.0000000000000000E+00    0.4824009309761342E+00   -0.1377073420955661E-02    0.0000000000000000E+00    0.0000000000000000E+00    0.0000000000000000E+00    0.0000000000000000E+00    0.0000000000000000E+00
 -0.6562  -0.2446    0.1936793606674224E-01    0.0000000000000000E+00    0.0000000000000000E+00    0.4900514640639000E+00    0.1389336151325828E-01    0.0000000000000000E+00    0.0000000000000000E+00    0.0000000000000000E+00    0.0000000000000000E+00    0.0000000000000000E+00
 -0.6584  -0.2495    0.1690959255307597E-01    0.0000000000000000E+00    0.0000000000000000E+00    0.4955664036841582E+00    0.5337563602964484E-02    0.0000000000000000E+00    0.0000000000000000E+00    0.0000000000000000E+00    0.0000000000000000E+00    0.0000000000000000E+00
 -0.6597  -0.2524    0.1545435584689091E-01    0.0000000000000000E+00    0.0000000000000000E+00    0.4988901728259519E+00   -0.5862474067955436E-04    0.0000000000000000E+00    0.0000000000000000E+00    0.0000000000000000E+00    0.0000000000000000E+00    0.0000000000000000E+00
 -0.6601  -0.2534    0.1496926531784759E-01    0.0000000000000000E+00    0.0000000000000000E+00    0.5000000000000000E+00    0.0000000000000000E+00    0.0000000000000000E+00    0.0000000000000000E+00    0.0000000000000000E+00    0.0000000000000000E+00    0.0000000000000000E+00
 -0.2524   0.6597    0.2526584848922324E-01    0.0000000000000000E+00    0.0000000000000000E+00   -0.5000000000000000E+00    0.3356014912784496E-03    0.0000000000000000E+00    0.0000000000000000E+00    0.0000000000000000E+00    0.0000000000000000E+00    0.0000000000000000E+00
 -0.2529   0.6587    0.2575102911360854E-01    0.3633726380975043E-07   -0.3620087195258585E-07   -0.4951438437747805E+00   -0.6468065020192935E-03   -0.1190381326016175E-10    0.2809095592855998E-09   -0.7505103309657368E-12   -0.7521813033539715E-12    0.1051434828959474E-10
 -0.2542   0.6558    0.2716197059011328E-01    0.6193941212810145E-05   -0.2005203212978932E-05   -0.4805989901940092E+00   -0.7468838606400586E-02   -0.3053086416490100E-08    0.2757054055543828E-09   -0.1386185437268761E-11   -0.1081280898151959E-11    0.4369829324779584E-10
 -0.2563   0.6509    0.2941988746718838E-01    0.3960571329344758E-04   -0.4627863585387040E-05   -0.4564535826962380E+00   -0.3714655007664507E-01   -0.2126214994913621E-07    0.2709456652094655E-09   -0.1305745442325978E-11   -0.1073578725918622E-11    0.9801381928298269E-10
 -0.2594   0.6441    0.3245975117840719E-01    0.1162243053152596E-03   -0.6280159065687166E-05   -0.4229157223230312E+00   -0.1053972526811477E+00   -0.6282770947436377E-07    0.2679091549301349E-09   -0.9469612594070753E-12   -0.1141673561244616E-11    0.1749268160877726E-09
 -0.2632   0.6355    0.3618168014452105E-01    0.2322306470619034E-03   -0.6699049745840001E-05   -0.3804153302813261E+00   -0.2099932327298512E+00   -0.1256500440737396E-06    0.2661118825297848E-09   -0.5429268146173172E-12   -0.1094156015790659E-11    0.2751412812862508E-09
 -0.2679   0.6249    0.4040108513276542E-01    0.3683056427610806E-03   -0.5902052402739747E-05   -0.3297508814787153E+00   -0.3340326447626257E+00   -0.1990450017229401E-06    0.2652667131092246E-09   -0.3532174552844936E-12   -0.1094888069097522E-11    0.4011845161633332E-09
 -0.2734   0.6126    0.4483472819136767E-01    0.4978837087975302E-03   -0.4362253511408609E-05   -0.2722496325204639E+00   -0.4534057959134141E+00   -0.2687322324030191E-06    0.2643308610189576E-09   -0.5743738817898247E-12   -0.1059295012817429E-11    0.5560441759810963E-09
 -0.2797   0.5985    0.4910998519251872E-01    0.5965510760358943E-03   -0.2520461143213348E-05   -0.2098754784214386E+00   -0.5457306608055263E+00   -0.3215070618614706E-06    0.2620226006652682E-09   -0.1308154973234110E-11   -0.1032549046264819E-11    0.7452656408668545E-09
 -0.2867   0.5827    0.5280167985638484E-01    0.6517013525707641E-03   -0.9706871529334911E-06   -0.1452064151682290E+00   -0.5992381079173610E+00   -0.3506579456862911E-06    0.2566233811823054E-09   -0.2560451850541767E-11   -0.1010596988038071E-11    0.9729473338104810E-09
 -0.2945   0.5653    0.5549280919575654E-01    0.6702376572057753E-03   -0.1750564236704635E-06   -0.8123605917296513E-01   -0.6199917692193301E+00   -0.3599239334933903E-06    0.2461352260245755E-09   -0.4288423782750073E-11   -0.1023608715150504E-11    0.1241033345533715E-08
 -0.3029   0.5464    0.5685170274740971E-01    0.6800692335426614E-03   -0.4315078818360869E-06   -0.2102284020946551E-01   -0.6333027980268208E+00   -0.3644063309900501E-06    0.2281398544471541E-09   -0.6395524734803537E-11   -0.9743824670727097E-12    0.1542383720742890E-08
 -0.3120   0.5259    0.5669835082656613E-01    0.7224589468426612E-03   -0.1656478734524134E-05    0.3272805350598874E-01   -0.6768686278689949E+00   -0.3863388791040561E-06    0.2002233665324149E-09   -0.8730025383152373E-11   -0.1002548738471276E-11    0.1856439890701722E-08
 -0.3217   0.5041    0.5503049645438304E-01    0.8381039780870079E-03   -0.3528682495951005E-05    0.7805105928830153E-01   -0.7880626751876191E+00   -0.4476360441424068E-06    0.1604042844730036E-09   -0.1105944849588703E-10   -0.9517872601172428E-12    0.2146514688217138E-08
 -0.3320   0.4810    0.5199661039219157E-01    0.1055417050347013E-02   -0.5629886184537430E-05    0.1139982876190186E+00   -0.9931780866976098E+00   -0.5635499563226079E-06    0.1079194563574637E-09   -0.1311896424827097E-10   -0.8935352457939416E-12    0.2364397080900638E-08
 -0.3428   0.4567    0.4783808162543290E-01    0.1387979243483528E-02   -0.7707453219053444E-05    0.1407488149406474E+00   -0.1304926852611873E+01   -0.7413478309266257E-06    0.4350785183515615E-10   -0.1464629806324780E-10   -0.8669454043541691E-12    0.2462211642906276E-08
 -0.3541   0.4313    0.4283611915734768E-01    0.1839721350976637E-02   -0.9661825255283370E-05    0.1594963227477521E+00   -0.1727048241778671E+01   -0.9831227728739048E-06   -0.3060817224675993E-10   -0.1537743543611469E-10   -0.8098313686311087E-12    0.2409287876842248E-08
 -0.3658   0.4050    0.3728430791126752E-01    0.2410593902989899E-02   -0.1149669929815397E-04    0.1721082952876607E+00   -0.2259434307770056E+01   -0.1288856833379574E-05   -0.1112057113061837E-09   -0.1501675866988350E-10   -0.7562075965417137E-12    0.2203668421352223E-08
 -0.3780   0.3777    0.3148254799615704E-01    0.3097799517931327E-02   -0.1317641887392162E-04    0.1806500369970453E+00   -0.2899279407386016E+01   -0.1657094399908962E-05   -0.1945508511236316E-09   -0.1322798121039526E-10   -0.6839945276837511E-12    0.1874278081695491E-08
 -0.3904   0.3498    0.2574035579109854E-01    0.3893418121889385E-02   -0.1462868059888337E-04    0.1869487127923633E+00   -0.3638938625380290E+01   -0.2083636077914446E-05   -0.2767919782264983E-09   -0.9681479576362229E-11   -0.6148276332496039E-12    0.1469734313853249E-08
 -0.4032   0.3212    0.2037944753313227E-01    0.4781625941322996E-02   -0.1573287230669673E-04    0.1923492162329915E+00   -0.4463415250738162E+01   -0.2560061381874372E-05   -0.3539955724385369E-09   -0.4207509340936610E-11   -0.5335176744836190E-12    0.1040052252979616E-08
 -0.4161   0.2920    0.1572987512537529E-01    0.5737628436053428E-02   -0.1638331824594175E-04    0.1976941575790189E+00   -0.5349432662280575E+01   -0.3073110844778399E-05   -0.4220779385721851E-09    0.3170554097042810E-11   -0.4489048022193742E-12    0.6255147818982898E-09
 -0.4292   0.2626    0.1211609215613845E-01    0.6728629018008244E-02   -0.1648772169376824E-04    0.2034457873192952E+00   -0.6266374043221810E+01   -0.3605237244996172E-05   -0.4765630112757435E-09    0.1215082201522222E-10   -0.3803762860243864E-12    0.2505996308903302E-09
 -0.4425   0.2328    0.9834347622166412E-02    0.7716127540910252E-02   -0.1599807038783792E-04    0.2098382512270293E+00   -0.7178449873237590E+01   -0.4135786889697632E-05   -0.5129581065466127E-09    0.2219324723995442E-10   -0.2524092046485293E-12   -0.7295215039698766E-10
 -0.4558   0.2029    0.9125632437682881E-02    0.8658425634634528E-02   -0.1487951177940381E-04    0.2169921003444628E+00   -0.8047020911338262E+01   -0.4642394514518805E-05   -0.5271030348308336E-09    0.3259909009400985E-10   -0.2074590499390183E-12   -0.3423394302412563E-09
 -0.4691   0.1731    0.1014912549725700E-01    0.9512459998114739E-02   -0.1311291382211734E-04    0.2249778546750738E+00   -0.8832309469805462E+01   -0.5101908510654355E-05   -0.5158245462710820E-09    0.4264222308592025E-10   -0.1392705395453220E-12   -0.5594003671741121E-09
 -0.4823   0.1433    0.1295812808190676E-01    0.1023470426567827E-01   -0.1066244767505330E-04    0.2338433322409904E+00   -0.9494224382248278E+01   -0.5490939219380619E-05   -0.4774549366981518E-09    0.5165368133219772E-10   -0.1322900122779913E-12   -0.7272850759132421E-09
 -0.4955   0.1138    0.1747890734623064E-01    0.1078167727987837E-01   -0.7492477221940377E-05    0.2436221277184706E+00   -0.9992861126664121E+01   -0.5786057803516372E-05   -0.4122349232804634E-09    0.5906464206617557E-10   -0.9299505610016467E-13   -0.8503961692815643E-09
 -0.5084   0.0847    0.2349281874783247E-01    0.1111109776938678E-01   -0.3571540140925293E-05    0.2543340553137688E+00   -0.1028956941939960E+02   -0.5964491619950050E-05   -0.3223154321566057E-09    0.6446354561262524E-10   -0.8893753788985492E-13   -0.9326452457547596E-09
 -0.5212   0.0561    0.3062577488211719E-01    0.1118482493255283E-01    0.1074367237452520E-05    0.2659825783945903E+00   -0.1034969913506928E+02   -0.6005615998945316E-05   -0.2118458711404536E-09    0.6754852233115116E-10   -0.1166046426082090E-12   -0.9781933370950346E-09
 -0.5336   0.0281    0.3835308561240253E-01    0.1097419341077347E-01    0.6326295207908276E-05    0.2785513565845150E+00   -0.1014747438554122E+02   -0.5893921427316071E-05   -0.8651673648329972E-10    0.6817169051487326E-10   -0.1428093754363147E-12   -0.9913313590154127E-09
 -0.5457   0.0009    0.4603049116953554E-01    0.1046731906779146E-01    0.1191891836858413E-04    0.2920010276611877E+00   -0.9672680200646449E+01   -0.5622850611308441E-05    0.4660762747965563E-10    0.6631917237598373E-10   -0.1477776234715122E-12   -0.9760890620075235E-09
 -0.5575  -0.0255    0.5295859561107558E-01    0.9676525934116068E-02    0.1744320545129901E-04    0.3062670194644670E+00   -0.8937343055268890E+01   -0.5198933010833064E-05    0.1797858459329227E-09    0.6217215631210138E-10   -0.1922073611382302E-12   -0.9372394266932149E-09
 -0.5688  -0.0508    0.5847760811517502E-01    0.8642939362072107E-02    0.2238014394054443E-04    0.3212588791723188E+00   -0.7979841237932659E+01   -0.4644155504049693E-05    0.3055583217004276E-09    0.5608291608893978E-10   -0.2124689313376393E-12   -0.8791381927997222E-09
 -0.5796  -0.0751    0.6207351537304411E-01    0.7435231659144424E-02    0.2620936092615547E-04    0.3368610326630255E+00   -0.6863588565038800E+01   -0.3995454337435421E-05    0.4176332613070599E-09    0.4861600011452083E-10   -0.2243621954889363E-12   -0.8065683398950085E-09
 -0.5899  -0.0982    0.6346529136115669E-01    0.6141213676963426E-02    0.2852657728505078E-04    0.3529340814424970E+00   -0.5669315490123442E+01   -0.3300036089741037E-05    0.5118630866385310E-09    0.4045802581842395E-10   -0.2339517468641361E-12   -0.7247035003349334E-09
 -0.5996  -0.1201    0.6264348599086217E-01    0.4853854375112860E-02    0.2915469491147943E-04    0.3693150615510709E+00   -0.4482235750948539E+01   -0.2608022959274662E-05    0.5866119118236313E-09    0.3229749800937043E-10   -0.2410016630705059E-12   -0.6375249095996738E-09
 -0.6087  -0.1405    0.5984778026726368E-01    0.3656003167588521E-02    0.2817123644767635E-04    0.3858151402476210E+00   -0.3378207953212503E+01   -0.1963997832708893E-05    0.6426051080143935E-09    0.2472436144707046E-10   -0.2091660178393795E-12   -0.5488967214778429E-09
 -0.6171  -0.1594    0.5549489267441291E-01    0.2608693199215296E-02    0.2586537594413953E-04    0.4022145694270759E+00   -0.2413049319948591E+01   -0.1400921190150425E-05    0.6821868833717382E-09    0.1812851257998460E-10   -0.2268185639309195E-12   -0.4628138774998014E-09
 -0.6249  -0.1769    0.5008599427825282E-01    0.1746201205018180E-02    0.2262624378431581E-04    0.4182572879290042E+00   -0.1618154355421247E+01   -0.9371842939057997E-06    0.7085527650718682E-09    0.1269728766573053E-10   -0.2155081668675507E-12   -0.3806942469597452E-09
 -0.6319  -0.1926    0.4412396323334893E-01    0.1077888153966132E-02    0.1883052998812386E-04    0.4336501668006879E+00   -0.1002067982021232E+01   -0.5779245083076619E-06    0.7249506620010671E-09    0.8431939174657899E-11   -0.2405992072240792E-12   -0.3048148816686691E-09
 -0.6382  -0.2067    0.3805942835591015E-01    0.5943799302904919E-03    0.1476080665416441E-04    0.4480724040561585E+00   -0.5562136197216365E+00   -0.3179842839753244E-06    0.7342497859719188E-09    0.5240593983074637E-11   -0.2535888166121936E-12   -0.2360896721176342E-09
 -0.6437  -0.2191    0.3226784350731595E-01    0.2744698450794402E-03    0.1059818638135459E-04    0.4611973585051688E+00   -0.2609652303248055E+00   -0.1461076449840898E-06    0.7388187353574160E-09    0.2988009145665771E-11   -0.2412930966144700E-12   -0.1751631010377119E-09
 -0.6484  -0.2296    0.2704800623322186E-01    0.8999255140099422E-04    0.6497040720682939E-05    0.4727228587773581E+00   -0.9023856677137100E-01   -0.4701397712921011E-07    0.7405180670050360E-09    0.1544087774307812E-11   -0.2660476006166590E-12   -0.1224532046942284E-09
 -0.6522  -0.2383    0.2262636438705850E-01    0.7486670974128232E-05    0.2751600972363495E-05    0.4824002154390222E+00   -0.1275044595023981E-01   -0.2999872480303091E-08    0.7409108994729796E-09    0.7624074982448548E-12   -0.2913676244720165E-12   -0.7883389514101724E-10
 -0.6553  -0.2451    0.1915448808999688E-01   -0.1116831232710830E-04   -0.7689797651578014E-07    0.4900510407479566E+00    0.6765230288844352E-02    0.6693463333684320E-08    0.7411338614721848E-09    0.4649856888416792E-12   -0.3076761935505434E-12   -0.4453534719825458E-10
 -0.6574  -0.2499    0.1669783560180082E-01   -0.4935417539023742E-05   -0.1185246897374579E-05    0.4955662116917823E+00    0.3947107714537271E-02    0.2702369900952159E-08    0.7420904687190782E-09    0.4014063387236533E-12   -0.3385946037437471E-12   -0.1994922651550601E-10
 -0.6587  -0.2529    0.1524024216590557E-01   -0.2015069386752185E-06   -0.2015300735184605E-06    0.4988901246058343E+00    0.7016426425596222E-03    0.1716551382937385E-09    0.7435574781756993E-09    0.2419621035650021E-12   -0.2258297715496127E-12   -0.4895754591657808E-11
 -0.6592  -0.2538    0.1475490991555465E-01    0.0000000000000000E+00    0.0000000000000000E+00    0.5000000000000000E+00   -0.5829998817091623E-04    0.0000000000000000E+00    0.0000000000000000E+00    0.0000000000000000E+00    0.0000000000000000E+00    0.0000000000000000E+00
 -0.2495   0.6584    0.2593805835692822E-01    0.0000000000000000E+00    0.0000000000000000E+00   -0.5000000000000000E+00   -0.4522500202038875E-02    0.0000000000000000E+00    0.0000000000000000E+00    0.0000000000000000E+00    0.0000000000000000E+00    0.0000000000000000E+00
 -0.2499   0.6574    0.2641531670914417E-01    0.2003820339337152E-05   -0.6191513842088377E-05   -0.4951417523577215E+00   -0.7467530000262230E-02   -0.3051525659732014E-08    0.2760559528365569E-09   -0.1078378082360401E-11   -0.1474135483819916E-11    0.1100838224830231E-10
 -0.2512   0.6545    0.2781674756276682E-01    0.3144643983255715E-04   -0.3145065612257294E-04   -0.4805905446559443E+00   -0.1606996195287181E-01   -0.6243481019297053E-07    0.2739967697173995E-09   -0.3166232250342849E-11   -0.3595915232246227E-11    0.4371739732375590E-10
 -0.2534   0.6496    0.3006965752632218E-01    0.1524421366577839E-03   -0.6735023109520810E-04   -0.4564340369413067E+00   -0.3821940667180640E-01   -0.3325867370410263E-06    0.2706988695699852E-09   -0.4019523429377170E-11   -0.4427295335895920E-11    0.9795596625505887E-10
 -0.2564   0.6428    0.3308964467618820E-01    0.4238111329655241E-03   -0.9339414091597979E-04   -0.4228794308133875E+00   -0.8897863658726507E-01   -0.9444805039703705E-06    0.2678064645045275E-09   -0.3455286404219216E-11   -0.4619409021966447E-11    0.1746951003994690E-09
 -0.2603   0.6342    0.3676505695015160E-01    0.8445894440474763E-03   -0.1009739600196858E-03   -0.3803560497422505E+00   -0.1728061111881506E+00   -0.1884067927939809E-05    0.2658823647361253E-09   -0.2476453070388018E-11   -0.4518049129265123E-11    0.2749676146496238E-09
 -0.2650   0.6236    0.4091183236614099E-01    0.1351632529039962E-02   -0.9088567133317470E-04   -0.3296630030086977E+00   -0.2792747830226482E+00   -0.3002802865696740E-05    0.2646618757484731E-09   -0.2151646916193073E-11   -0.4282411231182337E-11    0.4006617468355067E-09
 -0.2705   0.6113    0.4525242353636192E-01    0.1848895034788343E-02   -0.6856722722174956E-04   -0.2721299881748031E+00   -0.3888639576749606E+00   -0.4085687076753347E-05    0.2633148837860588E-09   -0.3305328233338400E-11   -0.4009768211910014E-11    0.5560043953023452E-09
 -0.2767   0.5972    0.4942353166013171E-01    0.2244377843286202E-02   -0.4145265588736952E-04   -0.2097250154279872E+00   -0.4817248952490912E+00   -0.4930523379239954E-05    0.2605566006008697E-09   -0.6364686555571097E-11   -0.3768128170600349E-11    0.7447961622442101E-09