 title="result"
 variables="x","y","P","u","v","t","omega","psi","RES1","RES2","RES3","RES4"
zone,j= 49,i= 49,f=point
 -0.3282   0.6263    0.2539470114829386E-01    0.0000000000000000E+00    0.0000000000000000E+00   -0.5000000000000000E+00    0.0000000000000000E+00    0.0000000000000000E+00    0.0000000000000000E+00    0.0000000000000000E+00    0.0000000000000000E+00    0.0000000000000000E+00
 -0.3285   0.6253    0.2590232209690536E-01    0.0000000000000000E+00    0.0000000000000000E+00   -0.4954522269034136E+00    0.1082861044465194E-03    0.0000000000000000E+00    0.0000000000000000E+00    0.0000000000000000E+00    0.0000000000000000E+00    0.0000000000000000E+00
 -0.3295   0.6222    0.2738869144371862E-01    0.0000000000000000E+00    0.0000000000000000E+00   -0.4818307514389626E+00   -0.4273244722537593E-02    0.0000000000000000E+00    0.0000000000000000E+00    0.0000000000000000E+00    0.0000000000000000E+00    0.0000000000000000E+00
 -0.3311   0.6171    0.2978509802852115E-01    0.0000000000000000E+00    0.0000000000000000E+00   -0.4592154167207566E+00   -0.2482753781760419E-01    0.0000000000000000E+00    0.0000000000000000E+00    0.0000000000000000E+00    0.0000000000000000E+00    0.0000000000000000E+00
 -0.3333   0.6101    0.3300257570332975E-01    0.0000000000000000E+00    0.0000000000000000E+00   -0.4277882659392500E+00   -0.6497675643787493E-01    0.0000000000000000E+00    0.0000000000000000E+00    0.0000000000000000E+00    0.0000000000000000E+00    0.0000000000000000E+00
 -0.3361   0.6010    0.3688584437955421E-01    0.0000000000000000E+00    0.0000000000000000E+00   -0.3879099254948516E+00   -0.1180326097788856E+00    0.0000000000000000E+00    0.0000000000000000E+00    0.0000000000000000E+00    0.0000000000000000E+00    0.0000000000000000E+00
 -0.3396   0.5900    0.4119854602867781E-01    0.0000000000000000E+00    0.0000000000000000E+00   -0.3402251299481802E+00   -0.1731510934962200E+00    0.0000000000000000E+00    0.0000000000000000E+00    0.0000000000000000E+00    0.0000000000000000E+00    0.0000000000000000E+00
 -0.3436   0.5771    0.4562909981097366E-01    0.0000000000000000E+00    0.0000000000000000E+00   -0.2857818554071100E+00   -0.2195676321728230E+00    0.0000000000000000E+00    0.0000000000000000E+00    0.0000000000000000E+00    0.0000000000000000E+00    0.0000000000000000E+00
 -0.3482   0.5624    0.4980770012883035E-01    0.0000000000000000E+00    0.0000000000000000E+00   -0.2261331009796006E+00   -0.2506364564807271E+00    0.0000000000000000E+00    0.0000000000000000E+00    0.0000000000000000E+00    0.0000000000000000E+00    0.0000000000000000E+00
 -0.3533   0.5459    0.5333877412487104E-01    0.0000000000000000E+00    0.0000000000000000E+00   -0.1633783476057970E+00   -0.2677396850608739E+00    0.0000000000000000E+00    0.0000000000000000E+00    0.0000000000000000E+00    0.0000000000000000E+00    0.0000000000000000E+00
 -0.3590   0.5277    0.5584841537503786E-01    0.0000000000000000E+00    0.0000000000000000E+00   -0.1001017304322133E+00   -0.2833534738068456E+00    0.0000000000000000E+00    0.0000000000000000E+00    0.0000000000000000E+00    0.0000000000000000E+00    0.0000000000000000E+00
 -0.3652   0.5079    0.5704249311241896E-01    0.0000000000000000E+00    0.0000000000000000E+00   -0.3918069268046199E-01   -0.3207174747758313E+00    0.0000000000000000E+00    0.0000000000000000E+00    0.0000000000000000E+00    0.0000000000000000E+00    0.0000000000000000E+00
 -0.3719   0.4865    0.5675688830960997E-01    0.0000000000000000E+00    0.0000000000000000E+00    0.1653300789250446E-01   -0.4085669462324802E+00    0.0000000000000000E+00    0.0000000000000000E+00    0.0000000000000000E+00    0.0000000000000000E+00    0.0000000000000000E+00
 -0.3790   0.4637    0.5497908742299139E-01    0.0000000000000000E+00    0.0000000000000000E+00    0.6462564171935845E-01   -0.5729523672961655E+00    0.0000000000000000E+00    0.0000000000000000E+00    0.0000000000000000E+00    0.0000000000000000E+00    0.0000000000000000E+00
 -0.3865   0.4396    0.5183215430936780E-01    0.0000000000000000E+00    0.0000000000000000E+00    0.1035510667459153E+00   -0.8313159264239193E+00    0.0000000000000000E+00    0.0000000000000000E+00    0.0000000000000000E+00    0.0000000000000000E+00    0.0000000000000000E+00
 -0.3945   0.4142    0.4753500318019092E-01    0.0000000000000000E+00    0.0000000000000000E+00    0.1329478909740667E+00   -0.1192396069951628E+01    0.0000000000000000E+00    0.0000000000000000E+00    0.0000000000000000E+00    0.0000000000000000E+00    0.0000000000000000E+00
 -0.4027   0.3877    0.4236200809434215E-01    0.0000000000000000E+00    0.0000000000000000E+00    0.1536898590663231E+00   -0.1660127276659947E+01    0.0000000000000000E+00    0.0000000000000000E+00    0.0000000000000000E+00    0.0000000000000000E+00    0.0000000000000000E+00
 -0.4113   0.3601    0.3661664522376314E-01    0.0000000000000000E+00    0.0000000000000000E+00    0.1675894078821783E+00   -0.2236559590480400E+01    0.0000000000000000E+00    0.0000000000000000E+00    0.0000000000000000E+00    0.0000000000000000E+00    0.0000000000000000E+00
 -0.4202   0.3317    0.3061947119290882E-01    0.0000000000000000E+00    0.0000000000000000E+00    0.1768485602562166E+00   -0.2921048205854743E+01    0.0000000000000000E+00    0.0000000000000000E+00    0.0000000000000000E+00    0.0000000000000000E+00    0.0000000000000000E+00
 -0.4294   0.3025    0.2470493449913080E-01    0.0000000000000000E+00    0.0000000000000000E+00    0.1834999127330093E+00   -0.3706978778097213E+01    0.0000000000000000E+00    0.0000000000000000E+00    0.0000000000000000E+00    0.0000000000000000E+00    0.0000000000000000E+00
 -0.4387   0.2726    0.1921984027134921E-01    0.0000000000000000E+00    0.0000000000000000E+00    0.1890661810116162E+00   -0.4578764491176888E+01    0.0000000000000000E+00    0.0000000000000000E+00    0.0000000000000000E+00    0.0000000000000000E+00    0.0000000000000000E+00
 -0.4482   0.2422    0.1451631723291754E-01    0.0000000000000000E+00    0.0000000000000000E+00    0.1945034479163841E+00   -0.5510863240063384E+01    0.0000000000000000E+00    0.0000000000000000E+00    0.0000000000000000E+00    0.0000000000000000E+00    0.0000000000000000E+00
 -0.4578   0.2113    0.1093440268974826E-01    0.0000000000000000E+00    0.0000000000000000E+00    0.2003312219374092E+00   -0.6469034713924091E+01    0.0000000000000000E+00    0.0000000000000000E+00    0.0000000000000000E+00    0.0000000000000000E+00    0.0000000000000000E+00
 -0.4675   0.1803    0.8775266407387352E-02    0.0000000000000000E+00    0.0000000000000000E+00    0.2068074338127089E+00   -0.7413032454207771E+01    0.0000000000000000E+00    0.0000000000000000E+00    0.0000000000000000E+00    0.0000000000000000E+00    0.0000000000000000E+00
 -0.4773   0.1491    0.8270272805009728E-02    0.0000000000000000E+00    0.0000000000000000E+00    0.2140611339990657E+00   -0.8299536869434066E+01    0.0000000000000000E+00    0.0000000000000000E+00    0.0000000000000000E+00    0.0000000000000000E+00    0.0000000000000000E+00
 -0.4870   0.1178    0.9551537161351436E-02    0.0000000000000000E+00    0.0000000000000000E+00    0.2221655439971215E+00   -0.9084430908356218E+01    0.0000000000000000E+00    0.0000000000000000E+00    0.0000000000000000E+00    0.0000000000000000E+00    0.0000000000000000E+00
 -0.4967   0.0868    0.1262693579532877E-01    0.0000000000000000E+00    0.0000000000000000E+00    0.2311690023937472E+00   -0.9724223080599891E+01    0.0000000000000000E+00    0.0000000000000000E+00    0.0000000000000000E+00    0.0000000000000000E+00    0.0000000000000000E+00
 -0.5063   0.0559    0.1736065267604144E-01    0.0000000000000000E+00    0.0000000000000000E+00    0.2411044360117187E+00   -0.1017718921647063E+02    0.0000000000000000E+00    0.0000000000000000E+00    0.0000000000000000E+00    0.0000000000000000E+00    0.0000000000000000E+00
 -0.5158   0.0255    0.2346085366691267E-01    0.0000000000000000E+00    0.0000000000000000E+00    0.2519899580218629E+00   -0.1040522081005178E+02    0.0000000000000000E+00    0.0000000000000000E+00    0.0000000000000000E+00    0.0000000000000000E+00    0.0000000000000000E+00
 -0.5252  -0.0044    0.3047925705947596E-01    0.0000000000000000E+00    0.0000000000000000E+00    0.2638263306750922E+00   -0.1037728845103945E+02    0.0000000000000000E+00    0.0000000000000000E+00    0.0000000000000000E+00    0.0000000000000000E+00    0.0000000000000000E+00
 -0.5343  -0.0336    0.3783056402532978E-01    0.0000000000000000E+00    0.0000000000000000E+00    0.2765936697829018E+00   -0.1007476134651797E+02    0.0000000000000000E+00    0.0000000000000000E+00    0.0000000000000000E+00    0.0000000000000000E+00    0.0000000000000000E+00
 -0.5432  -0.0620    0.4483989731868857E-01    0.0000000000000000E+00    0.0000000000000000E+00    0.2902485710789364E+00   -0.9497749400499897E+01    0.0000000000000000E+00    0.0000000000000000E+00    0.0000000000000000E+00    0.0000000000000000E+00    0.0000000000000000E+00
 -0.5518  -0.0896    0.5082050624203496E-01    0.0000000000000000E+00    0.0000000000000000E+00    0.3047224042807380E+00   -0.8670444016179715E+01    0.0000000000000000E+00    0.0000000000000000E+00    0.0000000000000000E+00    0.0000000000000000E+00    0.0000000000000000E+00
 -0.5601  -0.1161    0.5517214449957183E-01    0.0000000000000000E+00    0.0000000000000000E+00    0.3199211085173391E+00   -0.7642817211133575E+01    0.0000000000000000E+00    0.0000000000000000E+00    0.0000000000000000E+00    0.0000000000000000E+00    0.0000000000000000E+00
 -0.5680  -0.1415    0.5747733029429848E-01    0.0000000000000000E+00    0.0000000000000000E+00    0.3357261796974861E+00   -0.6486588318511449E+01    0.0000000000000000E+00    0.0000000000000000E+00    0.0000000000000000E+00    0.0000000000000000E+00    0.0000000000000000E+00
 -0.5755  -0.1656    0.5756648636947376E-01    0.0000000000000000E+00    0.0000000000000000E+00    0.3519957659823781E+00   -0.5285344965220943E+01    0.0000000000000000E+00    0.0000000000000000E+00    0.0000000000000000E+00    0.0000000000000000E+00    0.0000000000000000E+00
 -0.5827  -0.1884    0.5553035745093749E-01    0.0000000000000000E+00    0.0000000000000000E+00    0.3685642866477928E+00   -0.4121228912140427E+01    0.0000000000000000E+00    0.0000000000000000E+00    0.0000000000000000E+00    0.0000000000000000E+00    0.0000000000000000E+00
 -0.5893  -0.2098    0.5167730835061197E-01    0.0000000000000000E+00    0.0000000000000000E+00    0.3852393440248411E+00   -0.3062322707667801E+01    0.0000000000000000E+00    0.0000000000000000E+00    0.0000000000000000E+00    0.0000000000000000E+00    0.0000000000000000E+00
 -0.5955  -0.2296    0.4645393029237306E-01    0.0000000000000000E+00    0.0000000000000000E+00    0.4017963079366216E+00   -0.2154532951991294E+01    0.0000000000000000E+00    0.0000000000000000E+00    0.0000000000000000E+00    0.0000000000000000E+00    0.0000000000000000E+00
 -0.6012  -0.2478    0.4035779723522884E-01    0.0000000000000000E+00    0.0000000000000000E+00    0.4179735037446026E+00   -0.1419729705840151E+01    0.0000000000000000E+00    0.0000000000000000E+00    0.0000000000000000E+00    0.0000000000000000E+00    0.0000000000000000E+00
 -0.6063  -0.2643    0.3386746218298376E-01    0.0000000000000000E+00    0.0000000000000000E+00    0.4334730695696792E+00   -0.8592176108541287E+00    0.0000000000000000E+00    0.0000000000000000E+00    0.0000000000000000E+00    0.0000000000000000E+00    0.0000000000000000E+00
 -0.6109  -0.2790    0.2740151747534751E-01    0.0000000000000000E+00    0.0000000000000000E+00    0.4479723222984812E+00   -0.4599871603476504E+00    0.0000000000000000E+00    0.0000000000000000E+00    0.0000000000000000E+00    0.0000000000000000E+00    0.0000000000000000E+00
 -0.6150  -0.2919    0.2130488372989112E-01    0.0000000000000000E+00    0.0000000000000000E+00    0.4611467813743291E+00   -0.2006974508842720E+00    0.0000000000000000E+00    0.0000000000000000E+00    0.0000000000000000E+00    0.0000000000000000E+00    0.0000000000000000E+00
 -0.6184  -0.3029    0.1585139414066234E-01    0.0000000000000000E+00    0.0000000000000000E+00    0.4727000321944598E+00   -0.5546163221185760E-01    0.0000000000000000E+00    0.0000000000000000E+00    0.0000000000000000E+00    0.0000000000000000E+00    0.0000000000000000E+00
 -0.6212  -0.3120    0.1124916650450489E-01    0.0000000000000000E+00    0.0000000000000000E+00    0.4823907799720958E+00    0.5230275477145338E-02    0.0000000000000000E+00    0.0000000000000000E+00    0.0000000000000000E+00    0.0000000000000000E+00    0.0000000000000000E+00
 -0.6235  -0.3190    0.7638537857311244E-02    0.0000000000000000E+00    0.0000000000000000E+00    0.4900472873961689E+00    0.1417844179306332E-01    0.0000000000000000E+00    0.0000000000000000E+00    0.0000000000000000E+00    0.0000000000000000E+00    0.0000000000000000E+00
 -0.6250  -0.3241    0.5082452580685989E-02    0.0000000000000000E+00    0.0000000000000000E+00    0.4955648165650764E+00    0.4826267991169415E-02    0.0000000000000000E+00    0.0000000000000000E+00    0.0000000000000000E+00    0.0000000000000000E+00    0.0000000000000000E+00
 -0.6260  -0.3272    0.3563247539477809E-02    0.0000000000000000E+00    0.0000000000000000E+00    0.4988897917342123E+00   -0.8426400292574974E-04    0.0000000000000000E+00    0.0000000000000000E+00    0.0000000000000000E+00    0.0000000000000000E+00    0.0000000000000000E+00
 -0.6263  -0.3282    0.3055807023019632E-02    0.0000000000000000E+00    0.0000000000000000E+00    0.5000000000000000E+00    0.0000000000000000E+00    0.0000000000000000E+00    0.0000000000000000E+00    0.0000000000000000E+00    0.0000000000000000E+00    0.0000000000000000E+00
 -0.3272   0.6260    0.2555525078902453E-01    0.0000000000000000E+00    0.0000000000000000E+00   -0.5000000000000000E+00    0.1082056349542673E-03    0.0000000000000000E+00    0.0000000000000000E+00    0.0000000000000000E+00    0.0000000000000000E+00    0.0000000000000000E+00
 -0.3275   0.6250    0.2606214761096072E-01    0.1276035735763379E-06   -0.1276374532271421E-06   -0.4954521083628116E+00   -0.5799015347982437E-03   -0.8041229748218196E-10   -0.5319062857810260E-09   -0.6225161445355676E-12   -0.5986140402813867E-12    0.9563453002604805E-11
 -0.3285   0.6219    0.2754891310216532E-01    0.4997107471702074E-05   -0.1444463020545434E-05   -0.4818302734702342E+00   -0.5327156790766253E-02   -0.2570990864491469E-08   -0.5361650836852028E-09   -0.1149312199230645E-11   -0.9090263264344145E-12    0.3883902270976347E-10
 -0.3301   0.6168    0.2994450696457511E-01    0.2564470865062182E-04   -0.2669520758153698E-05   -0.4592143182574186E+00   -0.2318684072221692E-01   -0.1392924800887597E-07   -0.5403851923227454E-09   -0.1114056763507065E-11   -0.8401421919268515E-12    0.8681825917900010E-10
 -0.3323   0.6097    0.3315463587849889E-01    0.6647007970319286E-04   -0.3158037504980313E-05   -0.4277862561511196E+00   -0.5931164692196880E-01   -0.3610408473608228E-07   -0.5437328287269394E-09   -0.7279576247354314E-12   -0.9088112207233934E-12    0.1550403191247218E-09
 -0.3351   0.6007    0.3702436311944123E-01    0.1213746425761668E-03   -0.3004043445642947E-05   -0.3879067011189962E+00   -0.1087895956444090E+00   -0.6585853723676599E-07   -0.5464763624257740E-09   -0.4593200819691390E-13   -0.8902583531478214E-12    0.2429473913712066E-09
 -0.3385   0.5897    0.4131887115140950E-01    0.1792574998341118E-03   -0.2374105560722252E-05   -0.3402204134743803E+00   -0.1618117464182086E+00   -0.9701900920069878E-07   -0.5483645907147783E-09    0.7930357759367013E-12   -0.9284049223845514E-12    0.3512508756076116E-09
 -0.3426   0.5768    0.4572811805215434E-01    0.2289020157843544E-03   -0.1572411232560437E-05   -0.2857754485136955E+00   -0.2081337008936807E+00   -0.1236172322462892E-06   -0.5497269384494019E-09    0.1604019000955859E-11   -0.9132200204375884E-12    0.4815579532357894E-09
 -0.3472   0.5621    0.4988413892008987E-01    0.2632963065242577E-03   -0.8408325985463854E-06   -0.2261249438894505E+00   -0.2413285129895238E+00   -0.1418144166171769E-06   -0.5510902875531520E-09    0.2228779660828906E-11   -0.8679315946502619E-12    0.6324254175904542E-09
 -0.3523   0.5456    0.5339338171590838E-01    0.2838284155058347E-03   -0.4731565956306009E-06   -0.1633685683158820E+00   -0.2625844214778918E+00   -0.1524198674672073E-06   -0.5534236548849700E-09    0.2568476681341636E-11   -0.8680330759736066E-12    0.8021770053767696E-09
 -0.3580   0.5274    0.5588391123869716E-01    0.3035241101083038E-03   -0.6861025803275523E-06   -0.1000906678993104E+00   -0.2837732048190311E+00   -0.1624261674104916E-06   -0.5577997720836170E-09    0.2596536050405995E-11   -0.8469024093127331E-12    0.9832422792621642E-09
 -0.3642   0.5076    0.5706299139319094E-01    0.3467431740511863E-03   -0.1587345432441706E-05   -0.3916888786955094E-01   -0.3271504300964143E+00   -0.1849936568543239E-06   -0.5653793587814815E-09    0.2340398708167157E-11   -0.8387318617408823E-12    0.1160224569196622E-08
 -0.3708   0.4862    0.5676693865351334E-01    0.4436998881612092E-03   -0.3070039643136185E-05    0.1654485140432748E-01   -0.4204345777410373E+00   -0.2363700483993481E-06   -0.5769753858714255E-09    0.1878702055035930E-11   -0.7770450949351471E-12    0.1305814900653957E-08
 -0.3780   0.4634    0.5498282956969240E-01    0.6219038792767054E-03   -0.4901549739769883E-05    0.6463673330801220E-01   -0.5889629492933866E+00   -0.3313647756979742E-06   -0.5927011242912172E-09    0.1327014886864930E-11   -0.7373442134639419E-12    0.1381673872535849E-08
 -0.3855   0.4393    0.5183300682770196E-01    0.8998949890184415E-03   -0.6828943653791747E-05    0.1035606553006703E+00   -0.8499372707924843E+00   -0.4799128820035516E-06   -0.6114258526562777E-09    0.8177278298937551E-12   -0.7011266567324981E-12    0.1345368982885731E-08
 -0.3934   0.4139    0.4753582131572426E-01    0.1287036286026096E-02   -0.8720574526506799E-05    0.1329554336902924E+00   -0.1212110390637477E+01   -0.6870341034398314E-06   -0.6307632333113489E-09    0.4889907923022463E-12   -0.6152786613533578E-12    0.1165437003847192E-08
 -0.4017   0.3874    0.4236521769803279E-01    0.1787510086467174E-02   -0.1054242261630288E-04    0.1536951671746918E+00   -0.1679365495632311E+01   -0.9549663351912144E-06   -0.6473481022062355E-09    0.4638858741579099E-12   -0.5400610514350035E-12    0.8359970007920658E-09
 -0.4103   0.3598    0.3662407878654479E-01    0.2403341818810312E-02   -0.1229633308515498E-04    0.1675926776329636E+00   -0.2253434542946605E+01   -0.1284827535346292E-05   -0.6577458890044685E-09    0.8862702238765507E-12   -0.4620817617428941E-12    0.3853084136473672E-09
 -0.4192   0.3314    0.3063200628393284E-01    0.3133552813998364E-02   -0.1392856768934924E-04    0.1768502560455961E+00   -0.2933134063508679E+01   -0.1676143711085257E-05   -0.6590995284272427E-09    0.1897374618531344E-11   -0.3459316166853910E-12   -0.1325292965648206E-09
 -0.4283   0.3021    0.2472225679344047E-01    0.3970740231977709E-02   -0.1533235000778089E-04    0.1835005706710398E+00   -0.3711246905612114E+01   -0.2125009263225926E-05   -0.6496956098112072E-09    0.3575788970477944E-11   -0.2468025783741723E-12   -0.6555524630080800E-09
 -0.4377   0.2723    0.1924044264709523E-01    0.4897957087627001E-02   -0.1636205615251041E-04    0.1890662457284409E+00   -0.4571698479545916E+01   -0.2622401803556930E-05   -0.6288859884240328E-09    0.5881732600965250E-11   -0.1174338404297259E-12   -0.1133848573137055E-08
 -0.4472   0.2418    0.1453772806789800E-01    0.5887735607053701E-02   -0.1688604028424439E-04    0.1945032073709910E+00   -0.5488715842642890E+01   -0.3153636944221403E-05   -0.5967215402358228E-09    0.8617405400368483E-11   -0.1799949078673535E-13   -0.1537983711306229E-08
 -0.4568   0.2110    0.1095348967823202E-01    0.6903479381286310E-02   -0.1680170989679218E-04    0.2003308260599805E+00   -0.6428168232665847E+01   -0.3699120817712125E-05   -0.5538132244464755E-09    0.1145586403517029E-10    0.1109390357356688E-12   -0.1858301592466693E-08
 -0.4665   0.1799    0.8788539155993655E-02    0.7902355918126727E-02   -0.1605417210776243E-04    0.2068069453291591E+00   -0.7350283873456838E+01   -0.4235874364887829E-05   -0.5010947004557842E-09    0.1403338556471567E-10    0.1721539577559383E-12   -0.2097400920476888E-08
 -0.4762   0.1487    0.8274070730527798E-02    0.8838422386858972E-02   -0.1461527680557635E-04    0.2140605725180629E+00   -0.8212549031588990E+01   -0.4739237308359781E-05   -0.4400527338355165E-09    0.1606134669707160E-10    0.2315925229368077E-12   -0.2264453858799587E-08
 -0.4860   0.1175    0.9542127119440885E-02    0.9665038462875411E-02   -0.1247550493528849E-04    0.2221649118666842E+00   -0.8971949401310470E+01   -0.5184129240438182E-05   -0.3725409425392456E-09    0.1734723475976807E-10    0.2885677807817899E-12   -0.2369018287963487E-08
 -0.4957   0.0864    0.1260051608006984E-01    0.1033637491456496E-01   -0.9622490179582593E-05    0.2311682965948046E+00   -0.9586354010426760E+01   -0.5545900776377081E-05   -0.3006726811971561E-09    0.1789018932996100E-10    0.2823227762682734E-12   -0.2420357758832481E-08
 -0.5053   0.0556    0.1731339369628487E-01    0.1080862742213301E-01   -0.6052602408500331E-05    0.2411036529228242E+00   -0.1001565503601601E+02   -0.5800937209429145E-05   -0.2267149142032299E-09    0.1781330638550571E-10    0.2256077269446877E-12   -0.2426660389992508E-08
 -0.5148   0.0252    0.2338902275104212E-01    0.1104197831406085E-01   -0.1785261059816991E-05    0.2519890953249049E+00   -0.1022356849080134E+02   -0.5927766278752865E-05   -0.1525433264946974E-09    0.1736893961989949E-10    0.1239173694211892E-12   -0.2394125776100653E-08
 -0.5242  -0.0047    0.3037955590140830E-01    0.1100424620467778E-01    0.3092108278530005E-05    0.2638253881570060E+00   -0.1018100785326838E+02   -0.5908959903699456E-05   -0.7945725240959822E-10    0.1679989480862787E-10    0.1938726956751680E-13   -0.2328363094342145E-08
 -0.5333  -0.0339    0.3770063443257505E-01    0.1067645868347403E-01    0.8391023544029163E-05    0.2765926494743575E+00   -0.9871154119048125E+01   -0.5734209332764938E-05   -0.8087020636482478E-11    0.1630928725404601E-10   -0.1158864670891546E-12   -0.2234563317368710E-08
 -0.5422  -0.0624    0.4467897503302470E-01    0.1005945047966482E-01    0.1379157477417882E-04    0.2902474766971562E+00   -0.9295464921296245E+01   -0.5403811356147107E-05    0.6147243478138442E-10    0.1606681454546788E-10   -0.2712413627037336E-12   -0.2116868146051498E-08
 -0.5508  -0.0899    0.5062997053725809E-01    0.9179365215754215E-02    0.1886274627982562E-04    0.3047212399405184E+00   -0.8478583794175423E+01   -0.4931741639904024E-05    0.1293648868583297E-09    0.1604627541951231E-10   -0.3899103262483550E-12   -0.1979554039785447E-08
 -0.5591  -0.1164    0.5495579638542252E-01    0.8089312187214337E-02    0.2311905279577069E-04    0.3199198769618402E+00   -0.7469768060289205E+01   -0.4346468571802837E-05    0.1955030443090422E-09    0.1613020828017397E-10   -0.5176414852314792E-12   -0.1826731007778526E-08
 -0.5670  -0.1418    0.5724112642233271E-01    0.6865036878036549E-02    0.2612854668116101E-04    0.3357248807730385E+00   -0.6338796440760210E+01   -0.3688753224749086E-05    0.2593921466509386E-09    0.1613303934888677E-10   -0.6023931353738021E-12   -0.1662057085710655E-08
 -0.5745  -0.1660    0.5731779429693511E-01    0.5594522439350273E-02    0.2761407665262786E-04    0.3519943965194605E+00   -0.5166463947431263E+01   -0.3005920357996190E-05    0.3197852677105928E-09    0.1583227993151581E-10   -0.6829259380225494E-12   -0.1490086861191675E-08
 -0.5816  -0.1887    0.5527682842182796E-01    0.4364065063014745E-02    0.2752646787343295E-04    0.3685628429933624E+00   -0.4031832650064961E+01   -0.2344496628509234E-05    0.3751266450247037E-09    0.1507552416235569E-10   -0.6954714582008137E-12   -0.1314634548790772E-08
 -0.5883  -0.2101    0.5142582243306937E-01    0.3245120016955129E-02    0.2603648891716817E-04    0.3852378278360834E+00   -0.3000328999459748E+01   -0.1742934730800873E-05    0.4238013759372272E-09    0.1381053604809779E-10   -0.7157191506124150E-12   -0.1139042294512338E-08
 -0.5945  -0.2299    0.4620981834921414E-01    0.2285861112763763E-02    0.2347112943232576E-04    0.4017947343614238E+00   -0.2116024046613187E+01   -0.1227251584977093E-05    0.4646038206934655E-09    0.1207803301817023E-10   -0.7151501613122946E-12   -0.9673960278677729E-09
 -0.6002  -0.2481    0.4012465216510776E-01    0.1509251667660286E-02    0.2020339011886522E-04    0.4179719091479440E+00   -0.1399972434633413E+01   -0.8097502711809147E-06    0.4969398434417904E-09    0.1002366939450994E-10   -0.6991074386064611E-12   -0.8021109193512288E-09
 -0.6053  -0.2646    0.3364733151377645E-01    0.9166711099902669E-03    0.1656301149478994E-04    0.4334715145461842E+00   -0.8534171534779181E+00   -0.4912543676524720E-06    0.5210214239215194E-09    0.7840280508153441E-11   -0.6890876758092190E-12   -0.6469985831814018E-09
 -0.6099  -0.2793    0.2719545298953527E-01    0.4944080701575266E-03    0.1277629555809894E-04    0.4479708861243614E+00   -0.4637918620994246E+00   -0.2642869963374863E-06    0.5376437420268054E-09    0.5735116374860905E-11   -0.6740788482950677E-12   -0.5035486749793705E-09
 -0.6140  -0.2922    0.2111330758185805E-01    0.2198807299566242E-03    0.8985316587399543E-05    0.4611455469038367E+00   -0.2102010284540048E+00   -0.1168366501747264E-06    0.5481623280290115E-09    0.3905962359107562E-11   -0.6730865864668090E-12   -0.3749733076124917E-09
 -0.6174  -0.3032    0.1567419950922218E-01    0.6553271527532567E-04    0.5315840750555382E-05    0.4726990647049649E+00   -0.6711755884561529E-01   -0.3397039247921992E-07    0.5541322158075790E-09    0.2497481388363809E-11   -0.6736659841077852E-12   -0.2631656281781858E-09
 -0.6202  -0.3123    0.1108498168280476E-01   -0.1150905638711335E-06    0.2043239581689226E-05    0.4823901075161888E+00   -0.5131480371508602E-02    0.9822701690940698E-09    0.5573785183399238E-09    0.1591345111240372E-11   -0.7061053131085515E-12   -0.1693976426145327E-09
 -0.6224  -0.3194    0.7483397879511803E-02   -0.1196526763370416E-04   -0.3389466607339495E-06    0.4900468913426518E+00    0.8004253599308673E-02    0.7028607353638305E-08    0.5595079654034836E-09    0.1140643135499886E-11   -0.6904205668550184E-12   -0.9541797256831797E-10
 -0.6240  -0.3245    0.4928323478172239E-02   -0.4598531654847584E-05   -0.1143467784332031E-05    0.4955646373572329E+00    0.3843565665178292E-02    0.2494011092788860E-08    0.5623006027813404E-09    0.9614214806219490E-12   -0.7582775553294230E-12   -0.4281124695200422E-10
 -0.6250  -0.3275    0.3406780931848287E-02   -0.1685323028381035E-06   -0.1686780022174133E-06    0.4988897467561453E+00    0.6403214884965713E-03    0.1439481082164444E-09    0.5656721084384628E-09    0.5065125836117845E-12   -0.5208071387347024E-12   -0.1036787273872228E-10
 -0.6253  -0.3285    0.2899162861989657E-02    0.0000000000000000E+00    0.0000000000000000E+00    0.5000000000000000E+00   -0.8380715461517980E-04    0.0000000000000000E+00    0.0000000000000000E+00    0.0000000000000000E+00    0.0000000000000000E+00    0.0000000000000000E+00
 -0.3241   0.6250    0.2604272967718594E-01    0.0000000000000000E+00    0.0000000000000000E+00   -0.5000000000000000E+00   -0.4271672491089919E-02    0.0000000000000000E+00    0.0000000000000000E+00    0.0000000000000000E+00    0.0000000000000000E+00    0.0000000000000000E+00
 -0.3245   0.6240    0.2654488585368207E-01    0.1443528945809066E-05   -0.4995714866948303E-05   -0.4954503485205968E+00   -0.5325953692618360E-02   -0.2570158044675238E-08   -0.5358356488550930E-09   -0.8751594284331365E-12   -0.1170306256417786E-11    0.9694398062087828E-11
 -0.3254   0.6210    0.2802512815358309E-01    0.2060213920322184E-04   -0.2060606002778269E-04   -0.4818231971939022E+00   -0.8833237988581278E-02   -0.4410366861300542E-07   -0.5375275502483845E-09   -0.2613931640582656E-11   -0.2850235672480217E-11    0.3859759777416483E-10
 -0.3270   0.6159    0.3041300455524831E-01    0.9092756072552979E-04   -0.3793365367803361E-04   -0.4591981483433666E+00   -0.1983108370967374E-01   -0.2055257736573882E-06   -0.5404966474387152E-09   -0.3295029180061526E-11   -0.3613453286588353E-11    0.8715073454568234E-10
 -0.3292   0.6088    0.3360236173674472E-01    0.2324017420103420E-03   -0.4664933881462319E-04   -0.4277568281688090E+00   -0.4519524984040332E-01   -0.5277593361353484E-06   -0.5435857181046444E-09   -0.2384602931781998E-11   -0.3945892224077596E-11    0.1549382844245883E-09
 -0.3320   0.5997    0.3743465136674103E-01    0.4309770319849240E-03   -0.4542784111753091E-04   -0.3878596084641917E+00   -0.8463795302596901E-01   -0.9718513068720002E-06   -0.5462254225319096E-09   -0.2062239268241228E-12   -0.4049647769899245E-11    0.2428609882643151E-09
 -0.3355   0.5887    0.4167773258317335E-01    0.6494347907710449E-03   -0.3712220142645879E-04   -0.3401515154277188E+00   -0.1315448218363972E+00   -0.1451092386021549E-05   -0.5482631258713067E-09    0.2655188569011813E-11   -0.4011381504742673E-11    0.3512552471107711E-09
 -0.3395   0.5758    0.4602583210449507E-01    0.8470053764700884E-03   -0.2566788621346207E-04   -0.2856816626170344E+00   -0.1774717303765814E+00   -0.1874479997893228E-05   -0.5498448727575544E-09    0.5485285836659415E-11   -0.3877898002713209E-11    0.4813058770980483E-09
 -0.3441   0.5611    0.5011631356813164E-01    0.9971665820560861E-03   -0.1517236724428955E-04   -0.2260051789131029E+00   -0.2166517966644717E+00   -0.2183707950358596E-05   -0.5515077379156241E-09    0.7660844181245352E-11   -0.3708811903424536E-11    0.6321460924163524E-09