 title="result"
 variables="x","y","P","u","v","t","omega","psi","RES1","RES2","RES3","RES4"
zone,j= 49,i= 49,f=point
 -0.3976   0.5847    0.2499631207605467E-01    0.0000000000000000E+00    0.0000000000000000E+00   -0.5000000000000000E+00    0.0000000000000000E+00    0.0000000000000000E+00    0.0000000000000000E+00    0.0000000000000000E+00    0.0000000000000000E+00    0.0000000000000000E+00
 -0.3978   0.5837    0.2551827262273548E-01    0.0000000000000000E+00    0.0000000000000000E+00   -0.4957771522049855E+00   -0.9894493369930859E-04    0.0000000000000000E+00    0.0000000000000000E+00    0.0000000000000000E+00    0.0000000000000000E+00    0.0000000000000000E+00
 -0.3984   0.5805    0.2706037121165914E-01    0.0000000000000000E+00    0.0000000000000000E+00   -0.4831286414092211E+00   -0.4219653391945062E-02    0.0000000000000000E+00    0.0000000000000000E+00    0.0000000000000000E+00    0.0000000000000000E+00    0.0000000000000000E+00
 -0.3994   0.5753    0.2956532932980989E-01    0.0000000000000000E+00    0.0000000000000000E+00   -0.4621261513892857E+00   -0.1415958300326048E-01    0.0000000000000000E+00    0.0000000000000000E+00    0.0000000000000000E+00    0.0000000000000000E+00    0.0000000000000000E+00
 -0.4008   0.5680    0.3291892994875693E-01    0.0000000000000000E+00    0.0000000000000000E+00   -0.4329271775889503E+00   -0.2229447808695781E-01    0.0000000000000000E+00    0.0000000000000000E+00    0.0000000000000000E+00    0.0000000000000000E+00    0.0000000000000000E+00
 -0.4026   0.5586    0.3691688507417535E-01    0.0000000000000000E+00    0.0000000000000000E+00   -0.3958287175546413E+00   -0.1936072784300831E-01    0.0000000000000000E+00    0.0000000000000000E+00    0.0000000000000000E+00    0.0000000000000000E+00    0.0000000000000000E+00
 -0.4048   0.5473    0.4127801728908408E-01    0.0000000000000000E+00    0.0000000000000000E+00   -0.3513349183047690E+00   -0.1125301706988493E-02    0.0000000000000000E+00    0.0000000000000000E+00    0.0000000000000000E+00    0.0000000000000000E+00    0.0000000000000000E+00
 -0.4073   0.5341    0.4566633303698335E-01    0.0000000000000000E+00    0.0000000000000000E+00   -0.3002341842608052E+00    0.2974954515609523E-01    0.0000000000000000E+00    0.0000000000000000E+00    0.0000000000000000E+00    0.0000000000000000E+00    0.0000000000000000E+00
 -0.4102   0.5189    0.4971769864226323E-01    0.0000000000000000E+00    0.0000000000000000E+00   -0.2436828224388993E+00    0.6370835575312346E-01    0.0000000000000000E+00    0.0000000000000000E+00    0.0000000000000000E+00    0.0000000000000000E+00    0.0000000000000000E+00
 -0.4134   0.5019    0.5307011486568509E-01    0.0000000000000000E+00    0.0000000000000000E+00   -0.1832862401841161E+00    0.8532312233012244E-01    0.0000000000000000E+00    0.0000000000000000E+00    0.0000000000000000E+00    0.0000000000000000E+00    0.0000000000000000E+00
 -0.4170   0.4832    0.5539889380495439E-01    0.0000000000000000E+00    0.0000000000000000E+00   -0.1211510440782851E+00    0.7489477198285337E-01    0.0000000000000000E+00    0.0000000000000000E+00    0.0000000000000000E+00    0.0000000000000000E+00    0.0000000000000000E+00
 -0.4209   0.4628    0.5645358378031893E-01    0.0000000000000000E+00    0.0000000000000000E+00   -0.5985707236703692E-01    0.1126853233675921E-01    0.0000000000000000E+00    0.0000000000000000E+00    0.0000000000000000E+00    0.0000000000000000E+00    0.0000000000000000E+00
 -0.4250   0.4408    0.5608879915398331E-01    0.0000000000000000E+00    0.0000000000000000E+00   -0.2282003158690377E-02   -0.1243491710324149E+00    0.0000000000000000E+00    0.0000000000000000E+00    0.0000000000000000E+00    0.0000000000000000E+00    0.0000000000000000E+00
 -0.4295   0.4174    0.5427952055634112E-01    0.0000000000000000E+00    0.0000000000000000E+00    0.4877164411635592E-01   -0.3451519186649349E+00    0.0000000000000000E+00    0.0000000000000000E+00    0.0000000000000000E+00    0.0000000000000000E+00    0.0000000000000000E+00
 -0.4342   0.3925    0.5111740478289048E-01    0.0000000000000000E+00    0.0000000000000000E+00    0.9111745082804174E-01   -0.6582633548788615E+00    0.0000000000000000E+00    0.0000000000000000E+00    0.0000000000000000E+00    0.0000000000000000E+00    0.0000000000000000E+00
 -0.4392   0.3664    0.4679214934369504E-01    0.0000000000000000E+00    0.0000000000000000E+00    0.1237280921513969E+00   -0.1067272715143371E+01    0.0000000000000000E+00    0.0000000000000000E+00    0.0000000000000000E+00    0.0000000000000000E+00    0.0000000000000000E+00
 -0.4444   0.3391    0.4156585125198974E-01    0.0000000000000000E+00    0.0000000000000000E+00    0.1470126199793568E+00   -0.1575326339622045E+01    0.0000000000000000E+00    0.0000000000000000E+00    0.0000000000000000E+00    0.0000000000000000E+00    0.0000000000000000E+00
 -0.4498   0.3108    0.3574751980103960E-01    0.0000000000000000E+00    0.0000000000000000E+00    0.1626283689674246E+00   -0.2185748326688700E+01    0.0000000000000000E+00    0.0000000000000000E+00    0.0000000000000000E+00    0.0000000000000000E+00    0.0000000000000000E+00
 -0.4554   0.2815    0.2967370148701018E-01    0.0000000000000000E+00    0.0000000000000000E+00    0.1728835981887203E+00   -0.2899401895857943E+01    0.0000000000000000E+00    0.0000000000000000E+00    0.0000000000000000E+00    0.0000000000000000E+00    0.0000000000000000E+00
 -0.4611   0.2514    0.2369777814423838E-01    0.0000000000000000E+00    0.0000000000000000E+00    0.1800388251372665E+00   -0.3710437725971786E+01    0.0000000000000000E+00    0.0000000000000000E+00    0.0000000000000000E+00    0.0000000000000000E+00    0.0000000000000000E+00
 -0.4670   0.2207    0.1818414999619054E-01    0.0000000000000000E+00    0.0000000000000000E+00    0.1858372395502230E+00   -0.4602844179704181E+01    0.0000000000000000E+00    0.0000000000000000E+00    0.0000000000000000E+00    0.0000000000000000E+00    0.0000000000000000E+00
 -0.4729   0.1894    0.1349852055583609E-01    0.0000000000000000E+00    0.0000000000000000E+00    0.1913865651047492E+00   -0.5549378288383456E+01    0.0000000000000000E+00    0.0000000000000000E+00    0.0000000000000000E+00    0.0000000000000000E+00    0.0000000000000000E+00
 -0.4790   0.1576    0.9987791905579057E-02    0.0000000000000000E+00    0.0000000000000000E+00    0.1972883004306982E+00   -0.6513091846266583E+01    0.0000000000000000E+00    0.0000000000000000E+00    0.0000000000000000E+00    0.0000000000000000E+00    0.0000000000000000E+00
 -0.4851   0.1257    0.7950003294305527E-02    0.0000000000000000E+00    0.0000000000000000E+00    0.2038370100815280E+00   -0.7450509705470094E+01    0.0000000000000000E+00    0.0000000000000000E+00    0.0000000000000000E+00    0.0000000000000000E+00    0.0000000000000000E+00
 -0.4912   0.0935    0.7600274436990502E-02    0.0000000000000000E+00    0.0000000000000000E+00    0.2111758889840860E+00   -0.8315127338622288E+01    0.0000000000000000E+00    0.0000000000000000E+00    0.0000000000000000E+00    0.0000000000000000E+00    0.0000000000000000E+00
 -0.4973   0.0614    0.9039186733119289E-02    0.0000000000000000E+00    0.0000000000000000E+00    0.2193830805296990E+00   -0.9060259002345221E+01    0.0000000000000000E+00    0.0000000000000000E+00    0.0000000000000000E+00    0.0000000000000000E+00    0.0000000000000000E+00
 -0.5034   0.0294    0.1222763754479750E-01    0.0000000000000000E+00    0.0000000000000000E+00    0.2285083191150046E+00   -0.9641090809129903E+01    0.0000000000000000E+00    0.0000000000000000E+00    0.0000000000000000E+00    0.0000000000000000E+00    0.0000000000000000E+00
 -0.5094  -0.0023    0.1697017031153264E-01    0.0000000000000000E+00    0.0000000000000000E+00    0.2385842990860833E+00   -0.1001653499419089E+02    0.0000000000000000E+00    0.0000000000000000E+00    0.0000000000000000E+00    0.0000000000000000E+00    0.0000000000000000E+00
 -0.5154  -0.0336    0.2290948107463989E-01    0.0000000000000000E+00    0.0000000000000000E+00    0.2496277687861528E+00   -0.1015181944674075E+02    0.0000000000000000E+00    0.0000000000000000E+00    0.0000000000000000E+00    0.0000000000000000E+00    0.0000000000000000E+00
 -0.5212  -0.0644    0.2953723691089391E-01    0.0000000000000000E+00    0.0000000000000000E+00    0.2616371539892646E+00   -0.1002247582041064E+02    0.0000000000000000E+00    0.0000000000000000E+00    0.0000000000000000E+00    0.0000000000000000E+00    0.0000000000000000E+00
 -0.5270  -0.0944    0.3622815632117474E-01    0.0000000000000000E+00    0.0000000000000000E+00    0.2745894777222989E+00   -0.9619602159085657E+01    0.0000000000000000E+00    0.0000000000000000E+00    0.0000000000000000E+00    0.0000000000000000E+00    0.0000000000000000E+00
 -0.5325  -0.1237    0.4230199181040880E-01    0.0000000000000000E+00    0.0000000000000000E+00    0.2884378567005081E+00   -0.8955180789778488E+01    0.0000000000000000E+00    0.0000000000000000E+00    0.0000000000000000E+00    0.0000000000000000E+00    0.0000000000000000E+00
 -0.5379  -0.1521    0.4711021116922919E-01    0.0000000000000000E+00    0.0000000000000000E+00    0.3031102638006064E+00   -0.8065329905336192E+01    0.0000000000000000E+00    0.0000000000000000E+00    0.0000000000000000E+00    0.0000000000000000E+00    0.0000000000000000E+00
 -0.5431  -0.1794    0.5013230928726838E-01    0.0000000000000000E+00    0.0000000000000000E+00    0.3185097172544967E+00   -0.7009236415939445E+01    0.0000000000000000E+00    0.0000000000000000E+00    0.0000000000000000E+00    0.0000000000000000E+00    0.0000000000000000E+00
 -0.5481  -0.2055    0.5105707079677727E-01    0.0000000000000000E+00    0.0000000000000000E+00    0.3345153558600369E+00   -0.5862615202945191E+01    0.0000000000000000E+00    0.0000000000000000E+00    0.0000000000000000E+00    0.0000000000000000E+00    0.0000000000000000E+00
 -0.5528  -0.2303    0.4982377499079969E-01    0.0000000000000000E+00    0.0000000000000000E+00    0.3509831456091017E+00   -0.4706635662360936E+01    0.0000000000000000E+00    0.0000000000000000E+00    0.0000000000000000E+00    0.0000000000000000E+00    0.0000000000000000E+00
 -0.5573  -0.2538    0.4661060678571598E-01    0.0000000000000000E+00    0.0000000000000000E+00    0.3677446838044409E+00   -0.3615340105399468E+01    0.0000000000000000E+00    0.0000000000000000E+00    0.0000000000000000E+00    0.0000000000000000E+00    0.0000000000000000E+00
 -0.5615  -0.2758    0.4177689952169460E-01    0.0000000000000000E+00    0.0000000000000000E+00    0.3846032509683517E+00   -0.2645386650495929E+01    0.0000000000000000E+00    0.0000000000000000E+00    0.0000000000000000E+00    0.0000000000000000E+00    0.0000000000000000E+00
 -0.5654  -0.2961    0.3578179654911184E-01    0.0000000000000000E+00    0.0000000000000000E+00    0.4013281223396521E+00   -0.1830904894191227E+01    0.0000000000000000E+00    0.0000000000000000E+00    0.0000000000000000E+00    0.0000000000000000E+00    0.0000000000000000E+00
 -0.5689  -0.3149    0.2910593832400203E-01    0.0000000000000000E+00    0.0000000000000000E+00    0.4176506111777416E+00   -0.1184046407258202E+01    0.0000000000000000E+00    0.0000000000000000E+00    0.0000000000000000E+00    0.0000000000000000E+00    0.0000000000000000E+00
 -0.5722  -0.3318    0.2219500864664285E-01    0.0000000000000000E+00    0.0000000000000000E+00    0.4332668869042337E+00   -0.6996499109422035E+00    0.0000000000000000E+00    0.0000000000000000E+00    0.0000000000000000E+00    0.0000000000000000E+00    0.0000000000000000E+00
 -0.5751  -0.3470    0.1543096218769624E-01    0.0000000000000000E+00    0.0000000000000000E+00    0.4478515903623280E+00   -0.3614418080109185E+00    0.0000000000000000E+00    0.0000000000000000E+00    0.0000000000000000E+00    0.0000000000000000E+00    0.0000000000000000E+00
 -0.5776  -0.3603    0.9125650212777696E-02    0.0000000000000000E+00    0.0000000000000000E+00    0.4610821375220822E+00   -0.1472601783718217E+00    0.0000000000000000E+00    0.0000000000000000E+00    0.0000000000000000E+00    0.0000000000000000E+00    0.0000000000000000E+00
 -0.5797  -0.3716    0.3525960813387808E-02    0.0000000000000000E+00    0.0000000000000000E+00    0.4726680260289957E+00   -0.3197428194821494E-01    0.0000000000000000E+00    0.0000000000000000E+00    0.0000000000000000E+00    0.0000000000000000E+00    0.0000000000000000E+00
 -0.5815  -0.3809   -0.1181259115143830E-02    0.0000000000000000E+00    0.0000000000000000E+00    0.4823757068855620E+00    0.1201006262820742E-01    0.0000000000000000E+00    0.0000000000000000E+00    0.0000000000000000E+00    0.0000000000000000E+00    0.0000000000000000E+00
 -0.5829  -0.3882   -0.4871381681487352E-02    0.0000000000000000E+00    0.0000000000000000E+00    0.4900404292491128E+00    0.1439884680198655E-01    0.0000000000000000E+00    0.0000000000000000E+00    0.0000000000000000E+00    0.0000000000000000E+00    0.0000000000000000E+00
 -0.5839  -0.3934   -0.7490021211087557E-02    0.0000000000000000E+00    0.0000000000000000E+00    0.4955620520263807E+00    0.4270453222548412E-02    0.0000000000000000E+00    0.0000000000000000E+00    0.0000000000000000E+00    0.0000000000000000E+00    0.0000000000000000E+00
 -0.5845  -0.3966   -0.9052133561950860E-02    0.0000000000000000E+00    0.0000000000000000E+00    0.4988891169425441E+00   -0.1115594596583841E-03    0.0000000000000000E+00    0.0000000000000000E+00    0.0000000000000000E+00    0.0000000000000000E+00    0.0000000000000000E+00
 -0.5847  -0.3976   -0.9574905342970761E-02    0.0000000000000000E+00    0.0000000000000000E+00    0.5000000000000000E+00    0.0000000000000000E+00    0.0000000000000000E+00    0.0000000000000000E+00    0.0000000000000000E+00    0.0000000000000000E+00    0.0000000000000000E+00
 -0.3966   0.5845    0.2509807549872681E-01    0.0000000000000000E+00    0.0000000000000000E+00   -0.5000000000000000E+00   -0.9912041916452489E-04    0.0000000000000000E+00    0.0000000000000000E+00    0.0000000000000000E+00    0.0000000000000000E+00    0.0000000000000000E+00
 -0.3968   0.5835    0.2561961456140831E-01    0.2183737674297088E-06   -0.2184738567956007E-06   -0.4957770545041471E+00   -0.5419914280120881E-03   -0.1487254318990257E-09   -0.5920727497686629E-09   -0.5221067989839151E-12   -0.4871257477251367E-12    0.7825690291098086E-11
 -0.3974   0.5803    0.2716106341049614E-01    0.4070743346552981E-05   -0.9725703030002236E-06   -0.4831282499611687E+00   -0.3508467420994812E-02   -0.2221748409060936E-08   -0.5955360449574898E-09   -0.9447425480813010E-12   -0.7486875702733542E-12    0.3133086194997969E-10
 -0.3984   0.5751    0.2966210752454174E-01    0.1332423947155275E-04   -0.8933592704753949E-06   -0.4621252694612144E+00   -0.1073210627350457E-01   -0.7483342428222266E-08   -0.5989951314903236E-09   -0.9589560048817170E-12   -0.7040726508755757E-12    0.7066148794560023E-10
 -0.3998   0.5678    0.3300676234607901E-01    0.2106569806869849E-04   -0.2366526963339587E-06   -0.4329256161167344E+00   -0.1709280887616572E-01   -0.1174516930768868E-07   -0.6019250678944953E-09   -0.7037287419464633E-12   -0.7414549660009206E-12    0.1259950598714310E-09
 -0.4016   0.5584    0.3699346494938216E-01    0.1793173714001651E-04    0.5512053273569963E-06   -0.3958263020615974E+00   -0.1416075065654963E-01   -0.1010170729410427E-07   -0.6046586217833827E-09   -0.1983951197770395E-12   -0.7439452699709026E-12    0.1978827691984097E-09
 -0.4037   0.5471    0.4134284776496781E-01   -0.6429548478732301E-06    0.1131867866307297E-05   -0.3513314837962152E+00    0.2281630208353232E-02    0.3241800626057821E-10   -0.6070656546897091E-09    0.4932824981818129E-12   -0.7347716185490683E-12    0.2883300265210664E-09
 -0.4062   0.5339    0.4572004277718719E-01   -0.3198397373971216E-04    0.1317881700250406E-05   -0.3002295674878621E+00    0.2995608540842317E-01    0.1709216486146377E-07   -0.6093663481795963E-09    0.1283515530187476E-11   -0.7382141772871442E-12    0.3975354247176544E-09
 -0.4091   0.5187    0.4976153285874801E-01   -0.6611182490008139E-04    0.1025516284332040E-05   -0.2436768689173057E+00    0.5974154102668644E-01    0.3577007883530676E-07   -0.6119318407028784E-09    0.2072810673103831E-11   -0.7649627459249686E-12    0.5278336864811273E-09
 -0.4124   0.5017    0.5310576004097808E-01   -0.8678134933560825E-04    0.2383934891982311E-06   -0.1832788398684642E+00    0.7674128501097380E-01    0.4726081302994711E-07   -0.6154707439770361E-09    0.2841730323277503E-11   -0.7493157570120923E-12    0.6781604652839057E-09
 -0.4159   0.4830    0.5542825191272817E-01   -0.7319891017441434E-04   -0.1006757096125393E-05   -0.1211421989038299E+00    0.6178960700886804E-01    0.4043051938066166E-07   -0.6207201762135905E-09    0.3595158892810701E-11   -0.7487682349149871E-12    0.8419274791227060E-09
 -0.4198   0.4626    0.5647857284188313E-01   -0.2991960979333667E-05   -0.2603526276728372E-05   -0.5984698445218157E-01   -0.5741175668605124E-02    0.3215543305140795E-08   -0.6284263187952832E-09    0.4380371065870747E-11   -0.7190324724515307E-12    0.1003870528371031E-08
 -0.4240   0.4406    0.5611110652294073E-01    0.1437671812419266E-03   -0.4392174316863172E-05   -0.2271151267302590E-02   -0.1442978415785977E+00   -0.7505295045051792E-07   -0.6389149747459966E-09    0.5220511523074123E-11   -0.7016123793057716E-12    0.1134493263221792E-08
 -0.4285   0.4172    0.5430060689086814E-01    0.3811405605465168E-03   -0.6209687632915602E-05    0.4878249779566924E-01   -0.3669505479778785E+00   -0.2019393868800736E-06   -0.6518116289766507E-09    0.6136965935432670E-11   -0.6518813266964685E-12    0.1191608409167877E-08
 -0.4332   0.3923    0.5113868252790734E-01    0.7167827045295807E-03   -0.7960984799380276E-05    0.9112738393898086E-01   -0.6808846739455713E+00   -0.3815147229825410E-06   -0.6654474523498655E-09    0.7135653179446422E-11   -0.5889178034124143E-12    0.1128893409307885E-08
 -0.4382   0.3662    0.4681521237133571E-01    0.1154549478386905E-02   -0.9639231637759877E-05    0.1237362749469310E+00   -0.1089710809528638E+01   -0.6158581258706306E-06   -0.6769734217648704E-09    0.8226835879199257E-11   -0.5229636168557761E-12    0.9134609249561443E-09
 -0.4434   0.3389    0.4159238866332111E-01    0.1697704731791794E-02   -0.1128345690919144E-04    0.1470185876176736E+00   -0.1596384852529899E+01   -0.9067210102577889E-06   -0.6825654902398171E-09    0.9453396399017322E-11   -0.4110392581857525E-12    0.5431917624032501E-09
 -0.4488   0.3106    0.3577894729064712E-01    0.2349554627425783E-02   -0.1290414021531879E-04    0.1626321483894339E+00   -0.2203755586239257E+01   -0.1255929310954051E-05   -0.6783670743193415E-09    0.1086698092622740E-10   -0.3251843239127084E-12    0.5348703771557162E-10
 -0.4543   0.2813    0.2971065171634260E-01    0.3110666442771289E-02   -0.1443888164765342E-04    0.1728856101862999E+00   -0.2912020987392161E+01   -0.1663841282176225E-05   -0.6614655212455745E-09    0.1249921346979654E-10   -0.2323974346296609E-12   -0.4934928993227672E-09
 -0.4601   0.2512    0.2373977829719261E-01    0.3974405232804959E-02   -0.1575415511727410E-04    0.1800396435567169E+00   -0.3714632364701136E+01   -0.2126978626080575E-05   -0.6303549522634899E-09    0.1431928707551489E-10   -0.9608980278130730E-13   -0.1031208359154878E-08
 -0.4659   0.2205    0.1822954394411860E-01    0.4923339206810960E-02   -0.1668282004417001E-04    0.1858373697205888E+00   -0.4595035644879816E+01   -0.2636057823057987E-05   -0.5849311104921817E-09    0.1615899775098129E-10    0.8090750291955828E-14   -0.1508960988767186E-08
 -0.4719   0.1892    0.1354466799697163E-01    0.5928179858961860E-02   -0.1706875173970730E-04    0.1913863430789840E+00   -0.5525756237720094E+01   -0.3175426693148964E-05   -0.5262895327873274E-09    0.1772242075315233E-10    0.1281891259807821E-12   -0.1900674151920911E-08
 -0.4779   0.1574    0.1003136717065283E-01    0.6949464575552750E-02   -0.1679850994871554E-04    0.1972879034454970E+00   -0.6470017933897282E+01   -0.3723944682329792E-05   -0.4563737165952375E-09    0.1868372123681183E-10    0.2266520304772257E-12   -0.2200585003716421E-08
 -0.4840   0.1255    0.7987325048564418E-02    0.7940967567721748E-02   -0.1580992460468651E-04    0.2038365131231904E+00   -0.7384937193143320E+01   -0.4256811719632135E-05   -0.3779250211388696E-09    0.1874536637025415E-10    0.3073374887918590E-12   -0.2415100594337083E-08
 -0.4901   0.0933    0.7627521366088908E-02    0.8853422055408528E-02   -0.1408102519161498E-04    0.2111753163541670E+00   -0.8224976624770910E+01   -0.4747566552849290E-05   -0.2942541002526333E-09    0.1772743063455096E-10    0.3745198595694887E-12   -0.2555915611969495E-08
 -0.4962   0.0612    0.9052537884483092E-02    0.9637537148100769E-02   -0.1161297646770535E-04    0.2193824363906482E+00   -0.8944737677735951E+01   -0.5169698766469751E-05   -0.2090516232344797E-09    0.1569905316856079E-10    0.3678099491644105E-12   -0.2634479722915528E-08
 -0.5023   0.0292    0.1222332384987605E-01    0.1024616660894500E-01   -0.8418778409179931E-05    0.2285076014790992E+00   -0.9500952620841794E+01   -0.5497829986785896E-05   -0.1260279883924520E-09    0.1284405914958597E-10    0.3249137070504560E-12   -0.2661033040619876E-08
 -0.5084  -0.0025    0.1694458143531677E-01    0.1063626645040077E-01   -0.4529800280847631E-05    0.2385835052998880E+00   -0.9854296548411662E+01   -0.5708744910563074E-05   -0.4837117512090927E-10    0.9503842157698728E-11    0.2427467948873385E-12   -0.2643791983947263E-08
 -0.5143  -0.0338    0.2285935576809154E-01    0.1077162198468523E-01   -0.1777384188944973E-07    0.2496268975785237E+00   -0.9971881612361459E+01   -0.5782887748554310E-05    0.2169099623495433E-10    0.6112332862073799E-11    0.1319451275669237E-12   -0.2589787238826968E-08
 -0.5202  -0.0646    0.2946004957842340E-01    0.1062702906398078E-01    0.4970413633027494E-05    0.2616362061713653E+00   -0.9831093917988033E+01   -0.5706580131251897E-05    0.8302974280338660E-10    0.3070377285752102E-11   -0.1882868860825226E-13   -0.2504266965672186E-08
 -0.5259  -0.0946    0.3612261265363347E-01    0.1019378173056367E-01    0.1018554337031376E-04    0.2745884561053917E+00   -0.9424566936836992E+01   -0.5475028321830711E-05    0.1359618043150768E-09    0.7357447984190912E-12   -0.1928318615895819E-12   -0.2392509020759936E-08
 -0.5315  -0.1239    0.4216858395302182E-01    0.9485176299495565E-02    0.1526888341424085E-04    0.2884367652862377E+00   -0.8765165096878968E+01   -0.5095250687051736E-05    0.1818814716891826E-09   -0.6451505996096785E-12   -0.3913674939681755E-12   -0.2258183497833022E-08
 -0.5369  -0.1523    0.4695156877764014E-01    0.8539815848573653E-02    0.1978837279200342E-04    0.3031091063278776E+00   -0.7888883349255936E+01   -0.4587939738007875E-05    0.2229090662053679E-09   -0.9859335570183703E-12   -0.5442590822468674E-12   -0.2105752692008189E-08
 -0.5421  -0.1796    0.4995321900823838E-01    0.7420383953015467E-02    0.2331108776429129E-04    0.3185084954993716E+00   -0.6853648744970791E+01   -0.3986748016045268E-05    0.2612980734562065E-09   -0.3995137554113626E-12   -0.6962763698936669E-12   -0.1938662445855055E-08
 -0.5471  -0.2057    0.5086397644219255E-01    0.6206718589201916E-02    0.2550348976976436E-04    0.3345140685190932E+00   -0.5732891639584166E+01   -0.3334652025733782E-05    0.2987380134933382E-09    0.8543721286002892E-12   -0.8024692021990631E-12   -0.1760788579177608E-08
 -0.5518  -0.2305    0.4962391514317515E-01    0.4984195644618656E-02    0.2621075242285195E-04    0.3509817888971131E+00   -0.4604952027545546E+01   -0.2677592711192866E-05    0.3358841260681089E-09    0.2406352894723796E-11   -0.8870820744633079E-12   -0.1576017441551336E-08
 -0.5563  -0.2540    0.4641094286498516E-01    0.3830586356251978E-02    0.2549404216475151E-04    0.3677432547662010E+00   -0.3541067450352566E+01   -0.2057498418394542E-05    0.3723793079446480E-09    0.3885225474675735E-11   -0.9343498197367239E-12   -0.1388043272335104E-08
 -0.5604  -0.2760    0.4158325470241230E-01    0.2805367000718551E-02    0.2359360171919175E-04    0.3846017536700028E+00   -0.2595707087034788E+01   -0.1506375074593400E-05    0.4070048950644001E-09    0.4980960088829534E-11   -0.9467426842491022E-12   -0.1200790232872007E-08
 -0.5643  -0.2963    0.3559833509359625E-01    0.1944371635176066E-02    0.2085407367771385E-04    0.4013265755986714E+00   -0.1801669252014159E+01   -0.1043575861216758E-05    0.4383621104997459E-09    0.5532491131887696E-11   -0.9317130400532392E-12   -0.1017592943935997E-08
 -0.5679  -0.3151    0.2893518140225088E-01    0.1260373673973519E-02    0.1762115822105941E-04    0.4176490548247219E+00   -0.1170686844451454E+01   -0.6759236182614709E-06    0.4650531695848947E-09    0.5509516454171859E-11   -0.9217349106194206E-12   -0.8425977120890549E-09
 -0.5711  -0.3320    0.2203813947556480E-01    0.7479553542750585E-03    0.1417720429070509E-04    0.4332653827503165E+00   -0.6977747223863910E+00   -0.4005675490384746E-06    0.4864040177576801E-09    0.5000591954407163E-11   -0.8979483823168266E-12   -0.6778346460512008E-09
 -0.5740  -0.3472    0.1528835852125335E-01    0.3899575596488943E-03    0.1069871987449302E-04    0.4478502150316976E+00   -0.3671838889834689E+00   -0.2081928690435850E-06    0.5022755683592450E-09    0.4180534390885171E-11   -0.8749320712375663E-12   -0.5267871607678165E-09
 -0.5765  -0.3605    0.8997188210327103E-02    0.1629182281863111E-03    0.7298308320129132E-05    0.4610809672433736E+00   -0.1572018372551208E+00   -0.8629834369159145E-07    0.5132235469940127E-09    0.3246441310222892E-11   -0.8726006028858535E-12   -0.3913299484806232E-09
 -0.5787  -0.3718    0.3411025243418210E-02    0.4008853903914308E-04    0.4080490513458893E-05    0.4726671173339482E+00   -0.4304431632235884E-01   -0.2040609241129226E-07    0.5201652416089719E-09    0.2398310716689167E-11   -0.8603395773576494E-12   -0.2742974987771096E-09
 -0.5805  -0.3811   -0.1284445326317712E-02   -0.7942283476733772E-05    0.1304658970581769E-05    0.4823750801338423E+00    0.2737213422998977E-02    0.5078221622414746E-08    0.5245340637533014E-09    0.1767992002799090E-11   -0.8776798732235136E-12   -0.1765857789853831E-09
 -0.5819  -0.3884   -0.4966910877659854E-02   -0.1272515061811082E-04   -0.6077951706233391E-06    0.4900400621125889E+00    0.9240412349228143E-02    0.7337883741174519E-08    0.5276484086897543E-09    0.1400143889718208E-11   -0.8717577441169633E-12   -0.9971855632895377E-10
 -0.5829  -0.3936   -0.7585261479591411E-02   -0.4225128295840178E-05   -0.1094377100026754E-05    0.4955618863751836E+00    0.3716412573115133E-02    0.2264657497215540E-08    0.5313412496446568E-09    0.1195348507676552E-11   -0.9292657789095049E-12   -0.4447986185103503E-10
 -0.5835  -0.3968   -0.9149688245307642E-02   -0.1329024603122566E-06   -0.1331385241491227E-06    0.4988890754018516E+00    0.5732593802638165E-03    0.1143875274447016E-09    0.5355162691327714E-09    0.6157070296317069E-12   -0.6363457937669237E-12   -0.1099569610710227E-10
 -0.5837  -0.3978   -0.9672571887533257E-02    0.0000000000000000E+00    0.0000000000000000E+00    0.5000000000000000E+00   -0.1110153184631657E-03    0.0000000000000000E+00    0.0000000000000000E+00    0.0000000000000000E+00    0.0000000000000000E+00    0.0000000000000000E+00
 -0.3934   0.5839    0.2539790950385537E-01    0.0000000000000000E+00    0.0000000000000000E+00   -0.5000000000000000E+00   -0.4219371709240443E-02    0.0000000000000000E+00    0.0000000000000000E+00    0.0000000000000000E+00    0.0000000000000000E+00    0.0000000000000000E+00
 -0.3936   0.5829    0.2591756632798825E-01    0.9720903529791454E-06   -0.4070239794944737E-05   -0.4957755992258697E+00   -0.3507755996974340E-02   -0.2221486323811022E-08   -0.5953064408613373E-09   -0.7265864613529432E-12   -0.9459024817755346E-12    0.8008531121247997E-11
 -0.3942   0.5797    0.2745521595293052E-01    0.1107646350232221E-04   -0.1107873296272438E-04   -0.4831224279520901E+00   -0.2230349486417589E-02   -0.2843678562659887E-07   -0.5966708030435974E-09   -0.2167690506260644E-11   -0.2288165533784192E-11    0.3154083981840583E-10
 -0.3952   0.5745    0.2994582143109882E-01    0.3540811311727315E-04   -0.1106396284419379E-04   -0.4621121733648567E+00   -0.2788409242721393E-02   -0.9185021136915078E-07   -0.5991000568902893E-09   -0.2847617107393230E-11   -0.2878641986239772E-11    0.7063982558619397E-10
 -0.3966   0.5672    0.3326799580171625E-01    0.5606036094403654E-04   -0.2792054868603042E-05   -0.4329024088954307E+00   -0.4232874599493944E-02   -0.1454091430422168E-06   -0.6017939328285815E-09   -0.2299749800316331E-11   -0.3155301988113680E-11    0.1259004983600320E-09
 -0.3984   0.5578    0.3722426130994495E-01    0.4295039752721384E-04    0.8088204545988987E-05   -0.3957902831711906E+00   -0.1156321157184103E-02   -0.1180961170731019E-06   -0.6043978481758139E-09   -0.6734699603549998E-12   -0.3280478319545033E-11    0.1979590796841180E-09
 -0.4006   0.5465    0.4154042960119318E-01   -0.2109137160477281E-04    0.1631099508684947E-04   -0.3512800536797450E+00    0.1035305741317755E-01    0.2834442856198671E-07   -0.6068456293029101E-09    0.1737182446504004E-11   -0.3326522651087016E-11    0.2878808996742421E-09
 -0.4031   0.5333    0.4588524746217754E-01   -0.1270453270165969E-03    0.1874203116726772E-04   -0.3001601827725455E+00    0.2885676901456268E-01    0.2729772068337980E-06   -0.6092116013045601E-09    0.4560706630060696E-11   -0.3284440427964164E-11    0.3975158396896106E-09
 -0.4060   0.5181    0.4989741519659033E-01   -0.2378442742404794E-03    0.1393904474920475E-04   -0.2435872174959526E+00    0.4657274491172398E-01    0.5340411831869977E-06   -0.6119148451833034E-09    0.7446487870765850E-11   -0.3219704017287661E-11    0.5277620007682060E-09