 title="result"
 variables="x","y","P","u","v","t","omega","psi","RES1","RES2","RES3","RES4"
zone,j= 49,i= 49,f=point
 -0.4450   0.5495    0.2444346000257268E-01    0.0000000000000000E+00    0.0000000000000000E+00   -0.5000000000000000E+00    0.0000000000000000E+00    0.0000000000000000E+00    0.0000000000000000E+00    0.0000000000000000E+00    0.0000000000000000E+00    0.0000000000000000E+00
 -0.4451   0.5485    0.2497152899328979E-01    0.0000000000000000E+00    0.0000000000000000E+00   -0.4960390886323463E+00   -0.2352564717380521E-03    0.0000000000000000E+00    0.0000000000000000E+00    0.0000000000000000E+00    0.0000000000000000E+00    0.0000000000000000E+00
 -0.4454   0.5453    0.2654107135042635E-01    0.0000000000000000E+00    0.0000000000000000E+00   -0.4841749752017938E+00   -0.4366416106736324E-02    0.0000000000000000E+00    0.0000000000000000E+00    0.0000000000000000E+00    0.0000000000000000E+00    0.0000000000000000E+00
 -0.4460   0.5400    0.2910555888567658E-01    0.0000000000000000E+00    0.0000000000000000E+00   -0.4644732466728625E+00   -0.7651111397537874E-02    0.0000000000000000E+00    0.0000000000000000E+00    0.0000000000000000E+00    0.0000000000000000E+00    0.0000000000000000E+00
 -0.4468   0.5326    0.3253854052833328E-01    0.0000000000000000E+00    0.0000000000000000E+00   -0.4370738974427177E+00    0.5593657375671569E-02    0.0000000000000000E+00    0.0000000000000000E+00    0.0000000000000000E+00    0.0000000000000000E+00    0.0000000000000000E+00
 -0.4478   0.5231    0.3660630852723433E-01    0.0000000000000000E+00    0.0000000000000000E+00   -0.4022299785591970E+00    0.4744485428688416E-01    0.0000000000000000E+00    0.0000000000000000E+00    0.0000000000000000E+00    0.0000000000000000E+00    0.0000000000000000E+00
 -0.4490   0.5117    0.4099897356623961E-01    0.0000000000000000E+00    0.0000000000000000E+00   -0.3603494262155172E+00    0.1186730010191322E+00    0.0000000000000000E+00    0.0000000000000000E+00    0.0000000000000000E+00    0.0000000000000000E+00    0.0000000000000000E+00
 -0.4504   0.4982    0.4536367342186590E-01    0.0000000000000000E+00    0.0000000000000000E+00   -0.3120405692547511E+00    0.2079722632080017E+00    0.0000000000000000E+00    0.0000000000000000E+00    0.0000000000000000E+00    0.0000000000000000E+00    0.0000000000000000E+00
 -0.4520   0.4829    0.4933926197971628E-01    0.0000000000000000E+00    0.0000000000000000E+00   -0.2581741765915470E+00    0.2943114009440801E+00    0.0000000000000000E+00    0.0000000000000000E+00    0.0000000000000000E+00    0.0000000000000000E+00    0.0000000000000000E+00
 -0.4538   0.4657    0.5258712448883472E-01    0.0000000000000000E+00    0.0000000000000000E+00   -0.1999761617321162E+00    0.3513198730675349E+00    0.0000000000000000E+00    0.0000000000000000E+00    0.0000000000000000E+00    0.0000000000000000E+00    0.0000000000000000E+00
 -0.4558   0.4468    0.5481889605982049E-01    0.0000000000000000E+00    0.0000000000000000E+00   -0.1391439516560246E+00    0.3525657268339969E+00    0.0000000000000000E+00    0.0000000000000000E+00    0.0000000000000000E+00    0.0000000000000000E+00    0.0000000000000000E+00
 -0.4580   0.4261    0.5581757828747122E-01    0.0000000000000000E+00    0.0000000000000000E+00   -0.7793568582124659E-01    0.2768211331986251E+00    0.0000000000000000E+00    0.0000000000000000E+00    0.0000000000000000E+00    0.0000000000000000E+00    0.0000000000000000E+00
 -0.4603   0.4039    0.5545218258175611E-01    0.0000000000000000E+00    0.0000000000000000E+00   -0.1913065970562542E-01    0.1114742926950986E+00    0.0000000000000000E+00    0.0000000000000000E+00    0.0000000000000000E+00    0.0000000000000000E+00    0.0000000000000000E+00
 -0.4628   0.3801    0.5368648131677919E-01    0.0000000000000000E+00    0.0000000000000000E+00    0.3425703161202092E-01   -0.1475077214949264E+00    0.0000000000000000E+00    0.0000000000000000E+00    0.0000000000000000E+00    0.0000000000000000E+00    0.0000000000000000E+00
 -0.4654   0.3550    0.5058413925358737E-01    0.0000000000000000E+00    0.0000000000000000E+00    0.7955141893648632E-01   -0.4992096594748732E+00    0.0000000000000000E+00    0.0000000000000000E+00    0.0000000000000000E+00    0.0000000000000000E+00    0.0000000000000000E+00
 -0.4682   0.3285    0.4630736982329347E-01    0.0000000000000000E+00    0.0000000000000000E+00    0.1151222485696839E+00   -0.9426254803018217E+00    0.0000000000000000E+00    0.0000000000000000E+00    0.0000000000000000E+00    0.0000000000000000E+00    0.0000000000000000E+00
 -0.4711   0.3009    0.4110442076137565E-01    0.0000000000000000E+00    0.0000000000000000E+00    0.1408832684394434E+00   -0.1479545801812307E+01    0.0000000000000000E+00    0.0000000000000000E+00    0.0000000000000000E+00    0.0000000000000000E+00    0.0000000000000000E+00
 -0.4741   0.2722    0.3528571935077430E-01    0.0000000000000000E+00    0.0000000000000000E+00    0.1582558235847422E+00   -0.2113728190892062E+01    0.0000000000000000E+00    0.0000000000000000E+00    0.0000000000000000E+00    0.0000000000000000E+00    0.0000000000000000E+00
 -0.4773   0.2426    0.2919850567756758E-01    0.0000000000000000E+00    0.0000000000000000E+00    0.1695768255552006E+00   -0.2847004649395345E+01    0.0000000000000000E+00    0.0000000000000000E+00    0.0000000000000000E+00    0.0000000000000000E+00    0.0000000000000000E+00
 -0.4805   0.2121    0.2320956209443473E-01    0.0000000000000000E+00    0.0000000000000000E+00    0.1772898264949546E+00   -0.3674256995978099E+01    0.0000000000000000E+00    0.0000000000000000E+00    0.0000000000000000E+00    0.0000000000000000E+00    0.0000000000000000E+00
 -0.4837   0.1810    0.1769562925012404E-01    0.0000000000000000E+00    0.0000000000000000E+00    0.1833457606726198E+00   -0.4579463984614323E+01    0.0000000000000000E+00    0.0000000000000000E+00    0.0000000000000000E+00    0.0000000000000000E+00    0.0000000000000000E+00
 -0.4871   0.1493    0.1303163267861854E-01    0.0000000000000000E+00    0.0000000000000000E+00    0.1890084504412716E+00   -0.5534381570235652E+01    0.0000000000000000E+00    0.0000000000000000E+00    0.0000000000000000E+00    0.0000000000000000E+00    0.0000000000000000E+00
 -0.4904   0.1172    0.9568721581640871E-02    0.0000000000000000E+00    0.0000000000000000E+00    0.1949696555347749E+00   -0.6500165496338506E+01    0.0000000000000000E+00    0.0000000000000000E+00    0.0000000000000000E+00    0.0000000000000000E+00    0.0000000000000000E+00
 -0.4938   0.0848    0.7601869699189674E-02    0.0000000000000000E+00    0.0000000000000000E+00    0.2015666176137300E+00   -0.7430911180642862E+01    0.0000000000000000E+00    0.0000000000000000E+00    0.0000000000000000E+00    0.0000000000000000E+00    0.0000000000000000E+00
 -0.4973   0.0523    0.7333492555008579E-02    0.0000000000000000E+00    0.0000000000000000E+00    0.2089597775602575E+00   -0.8277640200682839E+01    0.0000000000000000E+00    0.0000000000000000E+00    0.0000000000000000E+00    0.0000000000000000E+00    0.0000000000000000E+00
 -0.5007   0.0197    0.8840230312883505E-02    0.0000000000000000E+00    0.0000000000000000E+00    0.2172334873094265E+00   -0.8991672517487370E+01    0.0000000000000000E+00    0.0000000000000000E+00    0.0000000000000000E+00    0.0000000000000000E+00    0.0000000000000000E+00
 -0.5041  -0.0126    0.1204790945841046E-01    0.0000000000000000E+00    0.0000000000000000E+00    0.2264394257050597E+00   -0.9527241988179137E+01    0.0000000000000000E+00    0.0000000000000000E+00    0.0000000000000000E+00    0.0000000000000000E+00    0.0000000000000000E+00
 -0.5075  -0.0447    0.1671750134933031E-01    0.0000000000000000E+00    0.0000000000000000E+00    0.2366104770953187E+00   -0.9843942543780919E+01    0.0000000000000000E+00    0.0000000000000000E+00    0.0000000000000000E+00    0.0000000000000000E+00    0.0000000000000000E+00
 -0.5108  -0.0764    0.2244553134016164E-01    0.0000000000000000E+00    0.0000000000000000E+00    0.2477626020811504E+00   -0.9909870894437052E+01    0.0000000000000000E+00    0.0000000000000000E+00    0.0000000000000000E+00    0.0000000000000000E+00    0.0000000000000000E+00
 -0.5141  -0.1076    0.2868405155782860E-01    0.0000000000000000E+00    0.0000000000000000E+00    0.2598927327243151E+00   -0.9705926114980704E+01    0.0000000000000000E+00    0.0000000000000000E+00    0.0000000000000000E+00    0.0000000000000000E+00    0.0000000000000000E+00
 -0.5173  -0.1380    0.3478585442731753E-01    0.0000000000000000E+00    0.0000000000000000E+00    0.2729759248881121E+00   -0.9230870566856405E+01    0.0000000000000000E+00    0.0000000000000000E+00    0.0000000000000000E+00    0.0000000000000000E+00    0.0000000000000000E+00
 -0.5204  -0.1677    0.4007646577286843E-01    0.0000000000000000E+00    0.0000000000000000E+00    0.2869631699067676E+00   -0.8505689772725322E+01    0.0000000000000000E+00    0.0000000000000000E+00    0.0000000000000000E+00    0.0000000000000000E+00    0.0000000000000000E+00
 -0.5234  -0.1964    0.4394552485665067E-01    0.0000000000000000E+00    0.0000000000000000E+00    0.3017805084719007E+00   -0.7575143766932061E+01    0.0000000000000000E+00    0.0000000000000000E+00    0.0000000000000000E+00    0.0000000000000000E+00    0.0000000000000000E+00
 -0.5263  -0.2240    0.4593898893523364E-01    0.0000000000000000E+00    0.0000000000000000E+00    0.3173294568990027E+00   -0.6504642651586533E+01    0.0000000000000000E+00    0.0000000000000000E+00    0.0000000000000000E+00    0.0000000000000000E+00    0.0000000000000000E+00
 -0.5291  -0.2504    0.4582721267121692E-01    0.0000000000000000E+00    0.0000000000000000E+00    0.3334880156549399E+00   -0.5372022577578558E+01    0.0000000000000000E+00    0.0000000000000000E+00    0.0000000000000000E+00    0.0000000000000000E+00    0.0000000000000000E+00
 -0.5317  -0.2756    0.4362792991726405E-01    0.0000000000000000E+00    0.0000000000000000E+00    0.3501108868335717E+00   -0.4255875663278814E+01    0.0000000000000000E+00    0.0000000000000000E+00    0.0000000000000000E+00    0.0000000000000000E+00    0.0000000000000000E+00
 -0.5342  -0.2994    0.3957819488516344E-01    0.0000000000000000E+00    0.0000000000000000E+00    0.3670274559292696E+00   -0.3223763704566027E+01    0.0000000000000000E+00    0.0000000000000000E+00    0.0000000000000000E+00    0.0000000000000000E+00    0.0000000000000000E+00
 -0.5366  -0.3216    0.3406779923563009E-01    0.0000000000000000E+00    0.0000000000000000E+00    0.3840370653893537E+00   -0.2323795439119130E+01    0.0000000000000000E+00    0.0000000000000000E+00    0.0000000000000000E+00    0.0000000000000000E+00    0.0000000000000000E+00
 -0.5387  -0.3422    0.2755859302743436E-01    0.0000000000000000E+00    0.0000000000000000E+00    0.4009031632719171E+00   -0.1581587291380619E+01    0.0000000000000000E+00    0.0000000000000000E+00    0.0000000000000000E+00    0.0000000000000000E+00    0.0000000000000000E+00
 -0.5407  -0.3612    0.2051384474519767E-01    0.0000000000000000E+00    0.0000000000000000E+00    0.4173502433369309E+00   -0.1002404755884243E+01    0.0000000000000000E+00    0.0000000000000000E+00    0.0000000000000000E+00    0.0000000000000000E+00    0.0000000000000000E+00
 -0.5425  -0.3784    0.1335178315432304E-01    0.0000000000000000E+00    0.0000000000000000E+00    0.4330685293221106E+00   -0.5765356849201507E+00    0.0000000000000000E+00    0.0000000000000000E+00    0.0000000000000000E+00    0.0000000000000000E+00    0.0000000000000000E+00
 -0.5441  -0.3937    0.6425187326766139E-02    0.0000000000000000E+00    0.0000000000000000E+00    0.4477296437657434E+00   -0.2853711895173998E+00    0.0000000000000000E+00    0.0000000000000000E+00    0.0000000000000000E+00    0.0000000000000000E+00    0.0000000000000000E+00
 -0.5455  -0.4071    0.1973223719478696E-04    0.0000000000000000E+00    0.0000000000000000E+00    0.4610120405961270E+00   -0.1060882668479928E+00    0.0000000000000000E+00    0.0000000000000000E+00    0.0000000000000000E+00    0.0000000000000000E+00    0.0000000000000000E+00
 -0.5468  -0.4186   -0.5639392567773810E-02    0.0000000000000000E+00    0.0000000000000000E+00    0.4726298058727587E+00   -0.1401749620946537E-01    0.0000000000000000E+00    0.0000000000000000E+00    0.0000000000000000E+00    0.0000000000000000E+00    0.0000000000000000E+00
 -0.5477  -0.4281   -0.1038290379905981E-01    0.0000000000000000E+00    0.0000000000000000E+00    0.4823556319484087E+00    0.1705474954117976E-01    0.0000000000000000E+00    0.0000000000000000E+00    0.0000000000000000E+00    0.0000000000000000E+00    0.0000000000000000E+00
 -0.5485  -0.4354   -0.1409933847617023E-01    0.0000000000000000E+00    0.0000000000000000E+00    0.4900304456105869E+00    0.1445191591755380E-01    0.0000000000000000E+00    0.0000000000000000E+00    0.0000000000000000E+00    0.0000000000000000E+00    0.0000000000000000E+00
 -0.5491  -0.4407   -0.1674143496132957E-01    0.0000000000000000E+00    0.0000000000000000E+00    0.4955578419125866E+00    0.3809431589532911E-02    0.0000000000000000E+00    0.0000000000000000E+00    0.0000000000000000E+00    0.0000000000000000E+00    0.0000000000000000E+00
 -0.5494  -0.4439   -0.1832188416362844E-01    0.0000000000000000E+00    0.0000000000000000E+00    0.4988880771655131E+00   -0.1330639797217754E-03    0.0000000000000000E+00    0.0000000000000000E+00    0.0000000000000000E+00    0.0000000000000000E+00    0.0000000000000000E+00
 -0.5495  -0.4450   -0.1885154186294714E-01    0.0000000000000000E+00    0.0000000000000000E+00    0.5000000000000000E+00    0.0000000000000000E+00    0.0000000000000000E+00    0.0000000000000000E+00    0.0000000000000000E+00    0.0000000000000000E+00    0.0000000000000000E+00
 -0.4439   0.5494    0.2450156728667582E-01    0.0000000000000000E+00    0.0000000000000000E+00   -0.5000000000000000E+00   -0.2353881609576046E-03    0.0000000000000000E+00    0.0000000000000000E+00    0.0000000000000000E+00    0.0000000000000000E+00    0.0000000000000000E+00
 -0.4440   0.5483    0.2502941570442692E-01    0.2857814019288993E-06   -0.2858693829020661E-06   -0.4960390053576518E+00   -0.5408486638914362E-03   -0.1996328803757742E-09    0.1394609572139341E-09    0.5374116950063179E-12    0.5327108112268553E-12   -0.3530834804220395E-11
 -0.4444   0.5452    0.2659767420570017E-01    0.3631678054466104E-05   -0.7030190846548085E-06   -0.4841746433408194E+00   -0.2451374496247959E-02   -0.2085190467040948E-08    0.1430410666216492E-09    0.9875988915553080E-12    0.8015543524059199E-12   -0.1414711663788593E-10
 -0.4449   0.5399    0.2915613827338685E-01    0.5651774854562566E-05    0.2633318145411811E-06   -0.4644725121482776E+00   -0.2832233649087964E-02   -0.3496137494693459E-08    0.1461607499527590E-09    0.1006750238730092E-11    0.7699650379083822E-12   -0.3227559625812448E-10
 -0.4457   0.5325    0.3257878646262467E-01   -0.8776075843424508E-05    0.1755534470647322E-05   -0.4370726380188989E+00    0.1082324094818852E-01    0.4235169280918053E-08    0.1480379686023825E-09    0.9541100548515757E-12    0.7731263546029155E-12   -0.5866928123876569E-10
 -0.4467   0.5230    0.3663635245560343E-01   -0.5231136698838198E-04    0.3068255309951929E-05   -0.4022281075823937E+00    0.5029817058827917E-01    0.2772209155646502E-07    0.1492364582605932E-09    0.9727522606861605E-12    0.7685119901568171E-12   -0.9470392525745552E-10
 -0.4479   0.5116    0.4102109751281052E-01   -0.1261573554229033E-03    0.3718237999667676E-05   -0.3603468648839352E+00    0.1169910526971936E+00    0.6770292425720223E-07    0.1501168590475888E-09    0.1195197586734142E-11    0.7653912226235349E-12   -0.1441552051340000E-09
 -0.4493   0.4981    0.4538119044341648E-01   -0.2187177557623670E-03    0.3563371512288707E-05   -0.3120372030461948E+00    0.2006044593149684E+00    0.1177634126306939E-06    0.1515083761574609E-09    0.1655502124275898E-11    0.7463023254938861E-12   -0.2140191704413930E-09
 -0.4509   0.4828    0.4935544008186198E-01   -0.3080013572763460E-03    0.2602533494044965E-05   -0.2581698247433650E+00    0.2810468814459551E+00    0.1661308800382230E-06    0.1543418266455876E-09    0.2269108512198414E-11    0.7371551286050604E-12   -0.3137451756729526E-09
 -0.4527   0.4656    0.5260469260612408E-01   -0.3662208376561007E-03    0.9999673891201050E-06   -0.1999705881969995E+00    0.3328042838652295E+00    0.1977793080292243E-06    0.1597421429074680E-09    0.2830576051326972E-11    0.7161138002031997E-12   -0.4554721322325150E-09
 -0.4547   0.4467    0.5483958417804773E-01   -0.3653956768594959E-03   -0.1021305559153771E-05   -0.1391369363667986E+00    0.3300127227328344E+00    0.1977345880518401E-06    0.1687499541144777E-09    0.3084692223875862E-11    0.7394692497220134E-12   -0.6496686383306027E-09
 -0.4569   0.4260    0.5584207396588016E-01   -0.2829297996117635E-03   -0.3181874870784378E-05   -0.7792715754185084E-01    0.2517010322635442E+00    0.1538293078342513E-06    0.1826108431135509E-09    0.2833705492477634E-11    0.7836786775072824E-12   -0.8984564550673646E-09
 -0.4592   0.4038    0.5548031751611687E-01   -0.1052648084399973E-03   -0.5257678662225455E-05   -0.1912085628828163E-01    0.8513579519450112E-01    0.5885684985089526E-07    0.2026558591078365E-09    0.1998651244505822E-11    0.7682951497223200E-12   -0.1185227055389149E-08
 -0.4617   0.3800    0.5371782419167363E-01    0.1720928189688452E-03   -0.7116484138602137E-05    0.3426746232016557E-01   -0.1740365720165200E+00   -0.8959149644056881E-07    0.2301252851472091E-09    0.5977301986703765E-12    0.7480960295680461E-12   -0.1467748325656437E-08
 -0.4644   0.3549    0.5061855842131671E-01    0.5483264568838213E-03   -0.8768512471704504E-05    0.7956149030835824E-01   -0.5252160291639573E+00   -0.2910205702468862E-06    0.2654006701907630E-09   -0.1318306575015527E-11    0.6945277686298823E-12   -0.1681852032642261E-08
 -0.4672   0.3284    0.4634537367737716E-01    0.1022394649728467E-02   -0.1029970117375672E-04    0.1151309199549235E+00   -0.9674566430302869E+00   -0.5448913959817039E-06    0.3072481678800809E-09   -0.3772641921084841E-11    0.6656550310957243E-12   -0.1759938743350897E-08
 -0.4701   0.3008    0.4114697544061215E-01    0.1596070914819673E-02   -0.1180878445341028E-04    0.1408898214459426E+00   -0.1502286448593598E+01   -0.8521576241614573E-06    0.3523279411277169E-09   -0.6856938628008180E-11    0.6147166109471414E-12   -0.1659266182785224E-08
 -0.4731   0.2721    0.3533378410996413E-01    0.2273076171869659E-02   -0.1332115799818808E-04    0.1582600976259688E+00   -0.2132893799237523E+01   -0.1214882455845276E-05    0.3960936439950657E-09   -0.1070687982718255E-10    0.5250105905574287E-12   -0.1381518868054377E-08
 -0.4762   0.2424    0.2925244433441541E-01    0.3054969764098419E-02   -0.1477492301600369E-04    0.1695791670320568E+00   -0.2860362512083698E+01   -0.1633956934559917E-05    0.4335689238188500E-09   -0.1548902672787733E-10    0.4388850394221322E-12   -0.9724238584501999E-09
 -0.4794   0.2120    0.2326875497903677E-01    0.3935859547158672E-02   -0.1602123168203357E-04    0.1772908241991843E+00   -0.3678799291967768E+01   -0.2106313441280062E-05    0.4602739023251701E-09   -0.2125459357127379E-10    0.3318179064848437E-12   -0.4996715567348597E-09
 -0.4827   0.1809    0.1775831569424104E-01    0.4898274247597615E-02   -0.1687696186355430E-04    0.1833459709441156E+00   -0.4571587230333012E+01   -0.2622646740186846E-05    0.4724711941128668E-09   -0.2791696387949294E-10    0.2108313523763172E-12   -0.2732832157185255E-10
 -0.4860   0.1492    0.1309506450811678E-01    0.5911846349404135E-02   -0.1716578296017664E-04    0.1890082563988138E+00   -0.5510236002406564E+01   -0.3166733995576292E-05    0.4671762143804159E-09   -0.3509869478390826E-10    0.9466039063710241E-13    0.4014530318417753E-09
 -0.4894   0.1171    0.9629445211450540E-02    0.6935103030859128E-02   -0.1676303652666816E-04    0.1949692636842575E+00   -0.6456111213546214E+01   -0.3716349702228227E-05    0.4421681666644250E-09   -0.4227908301235317E-10   -0.8271161533457416E-14    0.7650027542861759E-09
 -0.4928   0.0847    0.7656073316330853E-02    0.7919263622863918E-02   -0.1559938953102305E-04    0.2015661170731243E+00   -0.7363984709349519E+01   -0.4245323412928875E-05    0.3962110396715790E-09   -0.4883962678725595E-10   -0.8629208458899029E-13    0.1058489573768640E-08
 -0.4962   0.0522    0.7377246897797265E-02    0.8812478698245491E-02   -0.1365683008417957E-04    0.2089591983479662E+00   -0.8185969228465783E+01   -0.4725794469173184E-05    0.3293967598683167E-09   -0.5420502935393756E-10   -0.1584912756591450E-12    0.1284496667884605E-08
 -0.4996   0.0196    0.8869667246853667E-02    0.9563399536122960E-02   -0.1094597249133952E-04    0.2172328357713099E+00   -0.8874815027849611E+01   -0.5130142444697790E-05    0.2432207595048919E-09   -0.5798028723802418E-10   -0.1896677259694002E-12    0.1450106809804119E-08
 -0.5030  -0.0128    0.1205931516940886E-01    0.1012393573987053E-01   -0.7501178768751025E-05    0.2264387008918605E+00   -0.9386443909385127E+01   -0.5432464968092795E-05    0.1406344051629871E-09   -0.5991224183432564E-10   -0.2210176486272530E-12    0.1561836511683456E-08
 -0.5064  -0.0449    0.1670747482985957E-01    0.1045182952227868E-01   -0.3383452898653734E-05    0.2366096771356029E+00   -0.9682317019965001E+01   -0.5609962748379486E-05    0.2584487224926990E-10   -0.5993994189879004E-10   -0.1879850441977027E-12    0.1626320715250595E-08
 -0.5097  -0.0765    0.2241122034971940E-01    0.1051395208988704E-01    0.1293735800640919E-05    0.2477617264472334E+00   -0.9732444016498164E+01   -0.5644723913708181E-05   -0.9619886484624196E-10   -0.5809824843439060E-10   -0.1047131131803880E-12    0.1649279414428495E-08
 -0.5130  -0.1077    0.2862356415670377E-01    0.1029079626071638E-01    0.6337949252377914E-05    0.2598917828772448E+00   -0.9519485573548678E+01   -0.5526133617395999E-05   -0.2200584679756812E-09   -0.5461819885255181E-10   -0.1390207393647813E-13    0.1636054179285362E-08
 -0.5162  -0.1381    0.3469872903954339E-01    0.9781734044573857E-02    0.1145699348063150E-04    0.2729749040298322E+00   -0.9043503404825310E+01   -0.5253739194060485E-05   -0.3403725461204044E-09   -0.4973854661471933E-10    0.1050756703868672E-12    0.1591204388737277E-08
 -0.5193  -0.1678    0.3996413256926627E-01    0.9009503728596083E-02    0.1626872630090397E-04    0.2869620819923268E+00   -0.8325996897826208E+01   -0.4839653600190972E-05   -0.4523401063438737E-09   -0.4385841689824588E-10    0.2182837244291136E-12    0.1519773357508414E-08
 -0.5223  -0.1965    0.4381149694372394E-01    0.8021730687415438E-02    0.2034837679367425E-04    0.3017793566734268E+00   -0.7411175872499978E+01   -0.4309433685707526E-05   -0.5522560256321363E-09   -0.3742028908959583E-10    0.3683581217828191E-12    0.1426512415136916E-08
 -0.5252  -0.2241    0.4578869311154230E-01    0.6887559923940424E-02    0.2330921039218398E-04    0.3173282420325899E+00   -0.6362813715616246E+01   -0.3700232396888392E-05   -0.6378731640110935E-09   -0.3087169408999557E-10    0.4509448370271230E-12    0.1315952400868237E-08
 -0.5280  -0.2506    0.4566733886166189E-01    0.5688988791413617E-02    0.2489427535347754E-04    0.3334867354708345E+00   -0.5256255067022062E+01   -0.3056195504043817E-05   -0.7084796499468027E-09   -0.2466687964997050E-10    0.5265787805797117E-12    0.1193055786108399E-08
 -0.5307  -0.2757    0.4346551340369518E-01    0.4508646450490283E-02    0.2503716307284878E-04    0.3501095372484182E+00   -0.4167283836929834E+01   -0.2421798290751232E-05   -0.7647905364560614E-09   -0.1914510217027043E-10    0.6045580702718212E-12    0.1063003829057663E-08
 -0.5332  -0.2995    0.3941961301574176E-01    0.3417490626817070E-02    0.2387435149741222E-04    0.3670260349704275E+00   -0.3160891069891411E+01   -0.1835292606998704E-05   -0.8084977340394595E-09   -0.1451977427180395E-10    0.6581263312099850E-12    0.9298289100484469E-09
 -0.5355  -0.3217    0.3391806308141916E-01    0.2466032869068583E-02    0.2168964570784417E-04    0.3840355796338819E+00   -0.2283345288806524E+01   -0.1323860357803191E-05   -0.8417527092019483E-09   -0.1083180767302849E-10    0.6842443278642918E-12    0.7981349661040360E-09
 -0.5377  -0.3424    0.2742100854449255E-01    0.1681182127182147E-02    0.1883543572249031E-04    0.4009016350661165E+00   -0.1559286848931855E+01   -0.9020350934111157E-06   -0.8666536099877220E-09   -0.8000114459782992E-11    0.6976919042500640E-12    0.6705753452518337E-09
 -0.5397  -0.3613    0.2039015866475078E-01    0.1068484479892965E-02    0.1563572741319185E-04    0.4173487157023463E+00   -0.9938297093885251E+00   -0.5727550967026371E-06   -0.8849760611828739E-09   -0.5877853759272966E-11    0.7137623825315131E-12    0.5506995172377405E-09
 -0.5415  -0.3785    0.1324255170525057E-01    0.6177313733678121E-03    0.1234043897588011E-04    0.4330670651513987E+00   -0.5775930405790439E+00   -0.3305797416876375E-06   -0.8981747533221007E-09   -0.4293230484661570E-11    0.7142897384682101E-12    0.4397305696651754E-09
 -0.5431  -0.3938    0.6330282495253619E-02    0.3092931973934245E-03    0.9093703978580792E-05    0.4477283173465996E+00   -0.2925431113417655E+00   -0.1648792513963025E-06   -0.9073390892788691E-09   -0.3110237761783097E-11    0.7003703172969722E-12    0.3396575676967162E-09
 -0.5445  -0.4073   -0.6139956204117700E-04    0.1190009800037246E-03    0.5991020369002327E-05    0.4610109224388776E+00   -0.1163131303840153E+00   -0.6275887050095464E-07   -0.9134622086515165E-09   -0.2235288343310771E-11    0.7065771578940172E-12    0.2514781421297796E-09
 -0.5457  -0.4187   -0.5707776847563463E-02    0.2060494128409579E-04    0.3123315879218561E-05    0.4726289450808792E+00   -0.2458200902391454E-01   -0.1002484940098561E-07   -0.9173762730366186E-09   -0.1627319806685179E-11    0.7019298337018753E-12    0.1754834168601893E-09
 -0.5467  -0.4282   -0.1044063507162752E-01   -0.1380697086708566E-04    0.7366626723991242E-06    0.4823550424390548E+00    0.8668665376241329E-02    0.8140870430614441E-08   -0.9200615668641943E-09   -0.1253677717194535E-11    0.7046663599852288E-12    0.1126846146774774E-09
 -0.5475  -0.4356   -0.1415057815168520E-01   -0.1320102998165467E-04   -0.8075922995060554E-06    0.4900301020080510E+00    0.1010509069187729E-01    0.7514563950509043E-08   -0.9222958993748698E-09   -0.1063815702195825E-11    0.7061261297902632E-12    0.6357157508740663E-10
 -0.5480  -0.4409   -0.1679296022149156E-01   -0.3904976267082362E-05   -0.1048378436936603E-05    0.4955576872805588E+00    0.3589680639477357E-02    0.2070362791748140E-08   -0.9252201353150691E-09   -0.9437099539322258E-12    0.7315393950324545E-12    0.2829883181086623E-10
 -0.5483  -0.4440   -0.1837568948339464E-01   -0.1038317801461693E-06   -0.1041149662327702E-06    0.4988880384172256E+00    0.5171713083499073E-03    0.9064094474537404E-10   -0.9285488955425997E-09   -0.5226857358389680E-12    0.5049133854073684E-12    0.7187965771638521E-11
 -0.5485  -0.4451   -0.1890541013335386E-01    0.0000000000000000E+00    0.0000000000000000E+00    0.5000000000000000E+00   -0.1324810407576368E-03    0.0000000000000000E+00    0.0000000000000000E+00    0.0000000000000000E+00    0.0000000000000000E+00    0.0000000000000000E+00
 -0.4407   0.5491    0.2466281394324777E-01    0.0000000000000000E+00    0.0000000000000000E+00   -0.5000000000000000E+00   -0.4366620411679036E-02    0.0000000000000000E+00    0.0000000000000000E+00    0.0000000000000000E+00    0.0000000000000000E+00    0.0000000000000000E+00
 -0.4409   0.5480    0.2519061790149388E-01    0.7028434795030407E-06   -0.3631687417414847E-05   -0.4960377617346941E+00   -0.2451193840448299E-02   -0.2085225653954122E-08    0.1429305478226756E-09    0.7760870938955389E-12    0.1026772633930251E-11   -0.3777733659747484E-11
 -0.4412   0.5448    0.2675688394442416E-01    0.5188735091056364E-05   -0.5189194507960528E-05   -0.4841696896936850E+00    0.2113562589726483E-02   -0.1921883064025083E-07    0.1442822376331032E-09    0.2294874793667967E-11    0.2455352978228409E-11   -0.1422703187897723E-10
 -0.4417   0.5395    0.2930294350412298E-01   -0.4835571098989036E-06    0.6631430661976069E-05   -0.4644615254267218E+00    0.8692877592660353E-02   -0.1941103891398665E-07    0.1463843378110563E-09    0.3199317546997982E-11    0.2943437160674023E-11   -0.3226490342261856E-10
 -0.4425   0.5321    0.3270123963023130E-01   -0.6158338108996133E-04    0.2723981494146710E-04   -0.4370536639087355E+00    0.2373691002105937E-01    0.1080419858911032E-06    0.1481612575682245E-09    0.3484623180283197E-11    0.3007637541796448E-11   -0.5850053427791657E-10
 -0.4435   0.5227    0.3673185689890656E-01   -0.2227321223872559E-03    0.4605983623345827E-04   -0.4021996186732355E+00    0.5680112218521842E-01    0.4643273321285078E-06    0.1493944933039781E-09    0.3875773833816876E-11    0.2920830244335093E-11   -0.9445799351026629E-10
 -0.4447   0.5112    0.4109431587947061E-01   -0.4914419030024168E-03    0.5575490404598614E-04   -0.3603074442011322E+00    0.1107884623095731E+00    0.1063609783422267E-05    0.1504128765983381E-09    0.4910964863935607E-11    0.2815530794619825E-11   -0.1440934489782553E-09
 -0.4461   0.4978    0.4544046800341957E-01   -0.8269330443175493E-03    0.5323342320177961E-04   -0.3119850097988211E+00    0.1780435085072824E+00    0.1813316081270787E-05    0.1518848623260904E-09    0.6795630030920208E-11    0.2733086326700551E-11   -0.2139058895289647E-09
 -0.4477   0.4825    0.4940972264296253E-01   -0.1147427238683128E-02    0.3846778159117806E-04   -0.2581022318246681E+00    0.2413469387493679E+00    0.2532972980462096E-05    0.1547639724708283E-09    0.9229821767986479E-11    0.2742760879526074E-11   -0.3134617010402962E-09