 title="result"
 variables="x","y","P","u","v","t","omega","psi","RES1","RES2","RES3","RES4"
zone,j= 49,i= 49,f=point
 -0.2534   0.6601    0.2511077217374685E-01    0.0000000000000000E+00    0.0000000000000000E+00   -0.5000000000000000E+00    0.0000000000000000E+00    0.0000000000000000E+00    0.0000000000000000E+00    0.0000000000000000E+00    0.0000000000000000E+00    0.0000000000000000E+00
 -0.2538   0.6592    0.2559700554501662E-01    0.0000000000000000E+00    0.0000000000000000E+00   -0.4951465493913904E+00    0.3357010628197097E-03    0.0000000000000000E+00    0.0000000000000000E+00    0.0000000000000000E+00    0.0000000000000000E+00    0.0000000000000000E+00
 -0.2551   0.6562    0.2700638192747720E-01    0.0000000000000000E+00    0.0000000000000000E+00   -0.4806098058726824E+00   -0.4538255154978211E-02    0.0000000000000000E+00    0.0000000000000000E+00    0.0000000000000000E+00    0.0000000000000000E+00    0.0000000000000000E+00
 -0.2573   0.6514    0.2926199795039664E-01    0.0000000000000000E+00    0.0000000000000000E+00   -0.4564778918040668E+00   -0.3711648393162990E-01    0.0000000000000000E+00    0.0000000000000000E+00    0.0000000000000000E+00    0.0000000000000000E+00    0.0000000000000000E+00
 -0.2603   0.6446    0.3230832111590681E-01    0.0000000000000000E+00    0.0000000000000000E+00   -0.4229587959130142E+00   -0.1120356802037763E+00    0.0000000000000000E+00    0.0000000000000000E+00    0.0000000000000000E+00    0.0000000000000000E+00    0.0000000000000000E+00
 -0.2642   0.6359    0.3604756268314499E-01    0.0000000000000000E+00    0.0000000000000000E+00   -0.3804820269915425E+00   -0.2241151417866438E+00    0.0000000000000000E+00    0.0000000000000000E+00    0.0000000000000000E+00    0.0000000000000000E+00    0.0000000000000000E+00
 -0.2689   0.6254    0.4029362909246095E-01    0.0000000000000000E+00    0.0000000000000000E+00   -0.3298450394466496E+00   -0.3542195200038915E+00    0.0000000000000000E+00    0.0000000000000000E+00    0.0000000000000000E+00    0.0000000000000000E+00    0.0000000000000000E+00
 -0.2744   0.6130    0.4476099644199494E-01    0.0000000000000000E+00    0.0000000000000000E+00   -0.2723731183599792E+00   -0.4767438504374492E+00    0.0000000000000000E+00    0.0000000000000000E+00    0.0000000000000000E+00    0.0000000000000000E+00    0.0000000000000000E+00
 -0.2807   0.5989    0.4907364146571056E-01    0.0000000000000000E+00    0.0000000000000000E+00   -0.2100270400995410E+00   -0.5684784426169901E+00    0.0000000000000000E+00    0.0000000000000000E+00    0.0000000000000000E+00    0.0000000000000000E+00    0.0000000000000000E+00
 -0.2877   0.5832    0.5280256350334098E-01    0.0000000000000000E+00    0.0000000000000000E+00   -0.1453807460661238E+00   -0.6176401023246435E+00    0.0000000000000000E+00    0.0000000000000000E+00    0.0000000000000000E+00    0.0000000000000000E+00    0.0000000000000000E+00
 -0.2954   0.5658    0.5552693029307133E-01    0.0000000000000000E+00    0.0000000000000000E+00   -0.8142364311195370E-01   -0.6311191286174516E+00    0.0000000000000000E+00    0.0000000000000000E+00    0.0000000000000000E+00    0.0000000000000000E+00    0.0000000000000000E+00
 -0.3039   0.5468    0.5691226909362120E-01    0.0000000000000000E+00    0.0000000000000000E+00   -0.2121101933149170E-01   -0.6357972775006501E+00    0.0000000000000000E+00    0.0000000000000000E+00    0.0000000000000000E+00    0.0000000000000000E+00    0.0000000000000000E+00
 -0.3130   0.5264    0.5677742409821716E-01    0.0000000000000000E+00    0.0000000000000000E+00    0.3255279537472355E-01   -0.6711383384802225E+00    0.0000000000000000E+00    0.0000000000000000E+00    0.0000000000000000E+00    0.0000000000000000E+00    0.0000000000000000E+00
 -0.3227   0.5045    0.5512059213293794E-01    0.0000000000000000E+00    0.0000000000000000E+00    0.7790018241067559E-01   -0.7758475556705241E+00    0.0000000000000000E+00    0.0000000000000000E+00    0.0000000000000000E+00    0.0000000000000000E+00    0.0000000000000000E+00
 -0.3330   0.4814    0.5209137460838340E-01    0.0000000000000000E+00    0.0000000000000000E+00    0.1138786467471179E+00   -0.9767523096025362E+00    0.0000000000000000E+00    0.0000000000000000E+00    0.0000000000000000E+00    0.0000000000000000E+00    0.0000000000000000E+00
 -0.3438   0.4571    0.4793214399371487E-01    0.0000000000000000E+00    0.0000000000000000E+00    0.1406614685694990E+00   -0.1286541474634756E+01    0.0000000000000000E+00    0.0000000000000000E+00    0.0000000000000000E+00    0.0000000000000000E+00    0.0000000000000000E+00
 -0.3551   0.4318    0.4292480309792234E-01    0.0000000000000000E+00    0.0000000000000000E+00    0.1594371869025079E+00   -0.1708862318730888E+01    0.0000000000000000E+00    0.0000000000000000E+00    0.0000000000000000E+00    0.0000000000000000E+00    0.0000000000000000E+00
 -0.3668   0.4054    0.3736377021236720E-01    0.0000000000000000E+00    0.0000000000000000E+00    0.1720702843414199E+00   -0.2243780029434995E+01    0.0000000000000000E+00    0.0000000000000000E+00    0.0000000000000000E+00    0.0000000000000000E+00    0.0000000000000000E+00
 -0.3789   0.3782    0.3155023254171067E-01    0.0000000000000000E+00    0.0000000000000000E+00    0.1806256329815781E+00   -0.2888917646054627E+01    0.0000000000000000E+00    0.0000000000000000E+00    0.0000000000000000E+00    0.0000000000000000E+00    0.0000000000000000E+00
 -0.3914   0.3502    0.2579539948293025E-01    0.0000000000000000E+00    0.0000000000000000E+00    0.1869318426401775E+00   -0.3637141903469323E+01    0.0000000000000000E+00    0.0000000000000000E+00    0.0000000000000000E+00    0.0000000000000000E+00    0.0000000000000000E+00
 -0.4041   0.3216    0.2042284292648769E-01    0.0000000000000000E+00    0.0000000000000000E+00    0.1923359268709607E+00   -0.4473865700704749E+01    0.0000000000000000E+00    0.0000000000000000E+00    0.0000000000000000E+00    0.0000000000000000E+00    0.0000000000000000E+00
 -0.4171   0.2925    0.1576440760785157E-01    0.0000000000000000E+00    0.0000000000000000E+00    0.1976823345681732E+00   -0.5375982765927299E+01    0.0000000000000000E+00    0.0000000000000000E+00    0.0000000000000000E+00    0.0000000000000000E+00    0.0000000000000000E+00
 -0.4302   0.2630    0.1214614400026970E-01    0.0000000000000000E+00    0.0000000000000000E+00    0.2034345045989815E+00   -0.6312734364527812E+01    0.0000000000000000E+00    0.0000000000000000E+00    0.0000000000000000E+00    0.0000000000000000E+00    0.0000000000000000E+00
 -0.4435   0.2332    0.9865619086222816E-02    0.0000000000000000E+00    0.0000000000000000E+00    0.2098271992590317E+00   -0.7247854632387991E+01    0.0000000000000000E+00    0.0000000000000000E+00    0.0000000000000000E+00    0.0000000000000000E+00    0.0000000000000000E+00
 -0.4568   0.2034    0.9164843349036549E-02    0.0000000000000000E+00    0.0000000000000000E+00    0.2169812390623382E+00   -0.8141929823470578E+01    0.0000000000000000E+00    0.0000000000000000E+00    0.0000000000000000E+00    0.0000000000000000E+00    0.0000000000000000E+00
 -0.4701   0.1735    0.1020369371485776E-01    0.0000000000000000E+00    0.0000000000000000E+00    0.2249672482569965E+00   -0.8954136894092144E+01    0.0000000000000000E+00    0.0000000000000000E+00    0.0000000000000000E+00    0.0000000000000000E+00    0.0000000000000000E+00
 -0.4833   0.1437    0.1303584154934855E-01    0.0000000000000000E+00    0.0000000000000000E+00    0.2338330817067392E+00   -0.9643096873492047E+01    0.0000000000000000E+00    0.0000000000000000E+00    0.0000000000000000E+00    0.0000000000000000E+00    0.0000000000000000E+00
 -0.4964   0.1143    0.1758750827091998E-01    0.0000000000000000E+00    0.0000000000000000E+00    0.2436123439281684E+00   -0.1016734953835914E+02    0.0000000000000000E+00    0.0000000000000000E+00    0.0000000000000000E+00    0.0000000000000000E+00    0.0000000000000000E+00
 -0.5094   0.0851    0.2363947547917018E-01    0.0000000000000000E+00    0.0000000000000000E+00    0.2543248459047205E+00   -0.1048643242852277E+02    0.0000000000000000E+00    0.0000000000000000E+00    0.0000000000000000E+00    0.0000000000000000E+00    0.0000000000000000E+00
 -0.5221   0.0565    0.3081635688743096E-01    0.0000000000000000E+00    0.0000000000000000E+00    0.2659740397020211E+00   -0.1056366680051728E+02    0.0000000000000000E+00    0.0000000000000000E+00    0.0000000000000000E+00    0.0000000000000000E+00    0.0000000000000000E+00
 -0.5346   0.0286    0.3859132324668361E-01    0.0000000000000000E+00    0.0000000000000000E+00    0.2785435688994914E+00   -0.1037124565927136E+02    0.0000000000000000E+00    0.0000000000000000E+00    0.0000000000000000E+00    0.0000000000000000E+00    0.0000000000000000E+00
 -0.5467   0.0013    0.4631710810432667E-01    0.0000000000000000E+00    0.0000000000000000E+00    0.2919940546607011E+00   -0.9897248045721598E+01    0.0000000000000000E+00    0.0000000000000000E+00    0.0000000000000000E+00    0.0000000000000000E+00    0.0000000000000000E+00
 -0.5585  -0.0250    0.5329073416970150E-01    0.0000000000000000E+00    0.0000000000000000E+00    0.3062609128649297E+00   -0.9152814457683391E+01    0.0000000000000000E+00    0.0000000000000000E+00    0.0000000000000000E+00    0.0000000000000000E+00    0.0000000000000000E+00
 -0.5698  -0.0504    0.5884877229159435E-01    0.0000000000000000E+00    0.0000000000000000E+00    0.3212536881821922E+00   -0.8176648571266671E+01    0.0000000000000000E+00    0.0000000000000000E+00    0.0000000000000000E+00    0.0000000000000000E+00    0.0000000000000000E+00
 -0.5806  -0.0747    0.6247430142877167E-01    0.0000000000000000E+00    0.0000000000000000E+00    0.3368568147380796E+00   -0.7033911447177621E+01    0.0000000000000000E+00    0.0000000000000000E+00    0.0000000000000000E+00    0.0000000000000000E+00    0.0000000000000000E+00
 -0.5909  -0.0978    0.6388474762827760E-01    0.0000000000000000E+00    0.0000000000000000E+00    0.3529309070872282E+00   -0.5808221955083169E+01    0.0000000000000000E+00    0.0000000000000000E+00    0.0000000000000000E+00    0.0000000000000000E+00    0.0000000000000000E+00
 -0.6006  -0.1196    0.6307084394892883E-01    0.0000000000000000E+00    0.0000000000000000E+00    0.3693130039417529E+00   -0.4588250821423562E+01    0.0000000000000000E+00    0.0000000000000000E+00    0.0000000000000000E+00    0.0000000000000000E+00    0.0000000000000000E+00
 -0.6097  -0.1401    0.6027392065701850E-01    0.0000000000000000E+00    0.0000000000000000E+00    0.3858142438758690E+00   -0.3453040773920091E+01    0.0000000000000000E+00    0.0000000000000000E+00    0.0000000000000000E+00    0.0000000000000000E+00    0.0000000000000000E+00
 -0.6181  -0.1590    0.5591325237440707E-01    0.0000000000000000E+00    0.0000000000000000E+00    0.4022148028223286E+00   -0.2460756873226198E+01    0.0000000000000000E+00    0.0000000000000000E+00    0.0000000000000000E+00    0.0000000000000000E+00    0.0000000000000000E+00
 -0.6259  -0.1764    0.5049260191085978E-01    0.0000000000000000E+00    0.0000000000000000E+00    0.4182585002736088E+00   -0.1643961705695701E+01    0.0000000000000000E+00    0.0000000000000000E+00    0.0000000000000000E+00    0.0000000000000000E+00    0.0000000000000000E+00
 -0.6329  -0.1922    0.4451693443530462E-01    0.0000000000000000E+00    0.0000000000000000E+00    0.4336520764744374E+00   -0.1011415457666654E+01    0.0000000000000000E+00    0.0000000000000000E+00    0.0000000000000000E+00    0.0000000000000000E+00    0.0000000000000000E+00
 -0.6392  -0.2063    0.3843804448612725E-01    0.0000000000000000E+00    0.0000000000000000E+00    0.4480746378821539E+00   -0.5540796047436872E+00    0.0000000000000000E+00    0.0000000000000000E+00    0.0000000000000000E+00    0.0000000000000000E+00    0.0000000000000000E+00
 -0.6447  -0.2186    0.3263189453192035E-01    0.0000000000000000E+00    0.0000000000000000E+00    0.4611995341756006E+00   -0.2517914677248059E+00    0.0000000000000000E+00    0.0000000000000000E+00    0.0000000000000000E+00    0.0000000000000000E+00    0.0000000000000000E+00
 -0.6493  -0.2292    0.2739750081614901E-01    0.0000000000000000E+00    0.0000000000000000E+00    0.4727246762491117E+00   -0.7802167331365979E-01    0.0000000000000000E+00    0.0000000000000000E+00    0.0000000000000000E+00    0.0000000000000000E+00    0.0000000000000000E+00
 -0.6532  -0.2378    0.2296232822627775E-01    0.0000000000000000E+00    0.0000000000000000E+00    0.4824015167303784E+00   -0.1390092234681549E-02    0.0000000000000000E+00    0.0000000000000000E+00    0.0000000000000000E+00    0.0000000000000000E+00    0.0000000000000000E+00
 -0.6562  -0.2446    0.1948055112146458E-01    0.0000000000000000E+00    0.0000000000000000E+00    0.4900518167929344E+00    0.1387330138759264E-01    0.0000000000000000E+00    0.0000000000000000E+00    0.0000000000000000E+00    0.0000000000000000E+00    0.0000000000000000E+00
 -0.6584  -0.2495    0.1702236166138982E-01    0.0000000000000000E+00    0.0000000000000000E+00    0.4955665646216857E+00    0.5330027595419853E-02    0.0000000000000000E+00    0.0000000000000000E+00    0.0000000000000000E+00    0.0000000000000000E+00    0.0000000000000000E+00
 -0.6597  -0.2524    0.1556712513490783E-01    0.0000000000000000E+00    0.0000000000000000E+00    0.4988902133307387E+00   -0.5880384468129127E-04    0.0000000000000000E+00    0.0000000000000000E+00    0.0000000000000000E+00    0.0000000000000000E+00    0.0000000000000000E+00
 -0.6601  -0.2534    0.1508202620408532E-01    0.0000000000000000E+00    0.0000000000000000E+00    0.5000000000000000E+00    0.0000000000000000E+00    0.0000000000000000E+00    0.0000000000000000E+00    0.0000000000000000E+00    0.0000000000000000E+00    0.0000000000000000E+00
 -0.2524   0.6597    0.2532886919759892E-01    0.0000000000000000E+00    0.0000000000000000E+00   -0.5000000000000000E+00    0.3359121119660711E-03    0.0000000000000000E+00    0.0000000000000000E+00    0.0000000000000000E+00    0.0000000000000000E+00    0.0000000000000000E+00
 -0.2529   0.6587    0.2581404736767691E-01    0.3670989721774587E-07   -0.3657369057333827E-07   -0.4951464082635058E+00   -0.6484536756008064E-03   -0.1217741167696157E-10    0.3179279089342638E-09   -0.7917854739913910E-12   -0.7770398907647191E-12    0.1090124377486207E-10
 -0.2542   0.6558    0.2722501742977432E-01    0.6207155869121049E-05   -0.2008852495203992E-05   -0.4806092337531293E+00   -0.7481856288229500E-02   -0.3060006481307038E-08    0.3127263517588297E-09   -0.1380734068745504E-11   -0.1123049570006529E-11    0.4290990002556172E-10
 -0.2563   0.6509    0.2948310230230771E-01    0.3966132862744797E-04   -0.4632675276651930E-05   -0.4564765557028631E+00   -0.3719379895618641E-01   -0.2129293007103465E-07    0.3079986821141745E-09   -0.1305051552935588E-11   -0.1101983088114267E-11    0.9685906417200574E-10
 -0.2594   0.6441    0.3252337690032872E-01    0.1163347743787278E-03   -0.6283173972014152E-05   -0.4229562910345058E+00   -0.1054901426619001E+00   -0.6288870806079214E-07    0.3050198496556966E-09   -0.9605441442239737E-12   -0.1084510953264228E-11    0.1724177849105057E-09
 -0.2632   0.6355    0.3624598358182231E-01    0.2323619778808094E-03   -0.6698443062372917E-05   -0.3804779114192675E+00   -0.2101019840850999E+00   -0.1257230093705014E-06    0.3032798109869894E-09   -0.5841091499370066E-12   -0.1090058598940402E-11    0.2716819928749725E-09
 -0.2679   0.6249    0.4046630322642960E-01    0.3683764888262657E-03   -0.5897191749982508E-05   -0.3298389293994647E+00   -0.3340843592651550E+00   -0.1990856166185582E-06    0.3024790262012855E-09   -0.4373654216571765E-12   -0.1091772505734667E-11    0.3963000552720253E-09
 -0.2734   0.6126    0.4490105874624811E-01    0.4977823526026163E-03   -0.4353629313015369E-05   -0.2723648151438497E+00   -0.4532990128806445E+00   -0.2686803029192296E-06    0.3015397306849188E-09   -0.7214576158709463E-12   -0.1013786277148654E-11    0.5502699892967478E-09
 -0.2797   0.5985    0.4917760244202260E-01    0.5961608089407383E-03   -0.2509201213049505E-05   -0.2100166392461824E+00   -0.5453589774061854E+00   -0.3212994969325418E-06    0.2991517016742717E-09   -0.1520020220802110E-11   -0.1048531053648993E-11    0.7387428446747890E-09
 -0.2867   0.5827    0.5287073639492863E-01    0.6509285962529313E-03   -0.9584076225855887E-06   -0.1453686735793746E+00   -0.5985160824710706E+00   -0.3502443778804960E-06    0.2935699881974341E-09   -0.2836050838617155E-11   -0.1037517294300017E-11    0.9669798434197574E-09
 -0.2945   0.5653    0.5556339623724954E-01    0.6690396281567785E-03   -0.1635809736010693E-06   -0.8141059360667077E-01   -0.6188807488759874E+00   -0.3592811273015040E-06    0.2827799316863951E-09   -0.4615571813637587E-11   -0.1008778564154378E-11    0.1237282748478563E-08
 -0.3029   0.5464    0.5692376616192211E-01    0.6784741213929273E-03   -0.4225638477536183E-06   -0.2119782473629924E-01   -0.6318294897590193E+00   -0.3635493692672489E-06    0.2643462322952581E-09   -0.6758045512089694E-11   -0.9846342491348636E-12    0.1543105962453772E-08
 -0.3120   0.5259    0.5677158219866368E-01    0.7205685210823193E-03   -0.1651239423326970E-05    0.3256530500155654E-01   -0.6751278269266467E+00   -0.3853222222828498E-06    0.2357983266108865E-09   -0.9109388590666789E-11   -0.9582404314478765E-12    0.1864206747304031E-08
 -0.3217   0.5041    0.5510422564445416E-01    0.8360766302024372E-03   -0.3527649055999056E-05    0.7791128537315878E-01   -0.7862018982390919E+00   -0.4465446061793468E-06    0.1950965968638974E-09   -0.1144017519605356E-10   -0.9466386008405436E-12    0.2164046622454840E-08
 -0.3320   0.4810    0.5206973750932735E-01    0.1053446330002911E-02   -0.5633177580413979E-05    0.1138878091561788E+00   -0.9913780766672043E+00   -0.5624873017351655E-06    0.1413987867765476E-09   -0.1348847422644184E-10   -0.8854826594184573E-12    0.2394112491588274E-08
 -0.3428   0.4567    0.4790910030102268E-01    0.1386287969417340E-02   -0.7715330641090829E-05    0.1406684147885258E+00   -0.1303395837671760E+01   -0.7404332528125696E-06    0.7536492263593431E-10   -0.1499726037801352E-10   -0.8731834699737817E-12    0.2505730622992530E-08
 -0.3541   0.4313    0.4290326355423341E-01    0.1838573429789209E-02   -0.9674858405273972E-05    0.1594419446037162E+00   -0.1726032301748583E+01   -0.9824975797353054E-06   -0.8873735080072720E-12   -0.1569739477291776E-10   -0.7959050085659669E-12    0.2466787888538713E-08
 -0.3658   0.4050    0.3734579511989764E-01    0.2410305682615988E-02   -0.1151554414235754E-04    0.1720731598189719E+00   -0.2259227179944402E+01   -0.1288690727723456E-05   -0.8412475924202134E-10   -0.1528240728410069E-10   -0.7644856969690750E-12    0.2274236528265750E-08
 -0.3780   0.3777    0.3153684663047478E-01    0.3098733106074926E-02   -0.1320141768988905E-04    0.1806271006097365E+00   -0.2900215909426760E+01   -0.1657581828913402E-05   -0.1705736732415808E-09   -0.1340219948908761E-10   -0.6929179452441758E-12    0.1955857063112854E-08
 -0.3904   0.3498    0.2578643084766770E-01    0.3895953936267117E-02   -0.1465961430883287E-04    0.1869323941066257E+00   -0.3641368907009740E+01   -0.2084981688507618E-05   -0.2562905651593006E-09   -0.9736791234393749E-11   -0.6168954236329682E-12    0.1558810472628708E-08
 -0.4032   0.3212    0.2041696953848402E-01    0.4786121664493811E-02   -0.1576884656330184E-04    0.1923359541873891E+00   -0.4467666696413691E+01   -0.2562457886043211E-05   -0.3371898801840523E-09   -0.4102322648247281E-11   -0.5488109966478305E-12    0.1134031516912201E-08
 -0.4161   0.2920    0.1575938598022779E-01    0.5744373433860464E-02   -0.1642281025199929E-04    0.1976820885172481E+00   -0.5355767759096681E+01   -0.3076714648047548E-05   -0.4090017734215134E-09    0.3492484079714586E-11   -0.4694022948115162E-12    0.7215116473030525E-09
 -0.4292   0.2626    0.1213910047971905E-01    0.6737802841473415E-02   -0.1652870406051925E-04    0.2034341158102367E+00   -0.6274952422034812E+01   -0.3610145974161864E-05   -0.4670688003027834E-09    0.1272867922175180E-10   -0.3857469899060106E-12    0.3465049753202665E-09
 -0.4425   0.2328    0.9853318063098322E-02    0.7727769393423495E-02   -0.1603821341587843E-04    0.2098267225669349E+00   -0.7189300665168544E+01   -0.4142022983879415E-05   -0.5066584651824968E-09    0.2305680646408348E-10   -0.2929323450473476E-12    0.2114471792102890E-10
 -0.4558   0.2029    0.9143848115972969E-02    0.8672417690047169E-02   -0.1491634750612360E-04    0.2169806913277778E+00   -0.8060028106493741E+01   -0.4649896017272609E-05   -0.5233582803243486E-09    0.3378400337261667E-10   -0.2237238172497769E-12   -0.2513418917438059E-09
 -0.4691   0.1731    0.1017042646945470E-01    0.9528523199919618E-02   -0.1314396461976023E-04    0.2249666307571015E+00   -0.8847208756200958E+01   -0.5110526771531003E-05   -0.5138718651986895E-09    0.4413175380690859E-10   -0.1726743747987314E-12   -0.4720103431374301E-09
 -0.4823   0.1433    0.1298654668188037E-01    0.1025240342414363E-01   -0.1068528345138859E-04    0.2338323906377736E+00   -0.9510608624945057E+01   -0.5500441390493205E-05   -0.4763891954528976E-09    0.5343353537412554E-10   -0.1239425229115909E-12   -0.6443743576917127E-09
 -0.4955   0.1138    0.1751823005776713E-01    0.1080043392536812E-01   -0.7504800300954451E-05    0.2436115747481482E+00   -0.1001019292598865E+02   -0.5796133707990147E-05   -0.4111141860968504E-09    0.6107064853821953E-10   -0.9260647804154587E-13   -0.7717192466658029E-09
 -0.5084   0.0847    0.2354611252497408E-01    0.1113021301439298E-01   -0.3571332475786171E-05    0.2543239951882507E+00   -0.1030720294211819E+02   -0.5974765805122236E-05   -0.3202598065216167E-09    0.6661876605917882E-10   -0.8866345158065059E-13   -0.8586159803980475E-09
 -0.5212   0.0561    0.3069493257020823E-01    0.1120351811610880E-01    0.1088535394142225E-05    0.2659731060562676E+00   -0.1036691628926204E+02   -0.6015668501910003E-05   -0.2080463462096616E-09    0.6975853228397000E-10   -0.1131881047222727E-12   -0.9087429593546137E-09
 -0.5336   0.0281    0.3843847181431921E-01    0.1099166274091124E-01    0.6354836503735410E-05    0.2785425533209007E+00   -0.1016354097179114E+02   -0.5903320234166721E-05   -0.8052700173344363E-10    0.7032052717903525E-10   -0.1259721493784838E-12   -0.9266049351419614E-09
 -0.5457   0.0009    0.4613079240031541E-01    0.1048282567589785E-01    0.1196073791084602E-04    0.2919929602462939E+00   -0.9686922913405626E+01   -0.5631197036590387E-05    0.5495039839820137E-10    0.6829525833751404E-10   -0.1599761989545812E-12   -0.9160889945930561E-09
 -0.5575  -0.0255    0.5307097128621181E-01    0.9689492322977385E-02    0.1749539012639775E-04    0.3062597437420233E+00   -0.8949238995669996E+01   -0.5205914758864278E-05    0.1903307511597063E-09    0.6386458029083997E-10   -0.1713212904874695E-12   -0.8818108587077544E-09
 -0.5688  -0.0508    0.5859817663015158E-01    0.8653040437692643E-02    0.2243803838853820E-04    0.3212524477668611E+00   -0.7989099849893246E+01   -0.4649596091463243E-05    0.3178252869218134E-09    0.5742573083722391E-10   -0.2012279232133096E-12   -0.8284144238646096E-09
 -0.5796  -0.0751    0.6219809539424686E-01    0.7442448686432934E-02    0.2626722445245060E-04    0.3368555039209820E+00   -0.6870199387482046E+01   -0.3999342365644882E-05    0.4309907847277472E-09    0.4958955468481463E-10   -0.1860178677759450E-12   -0.7605035611674138E-09
 -0.5899  -0.0982    0.6359019956566594E-01    0.6145826631294919E-02    0.2857869417416327E-04    0.3529295234985721E+00   -0.5673539734483349E+01   -0.3302521512117097E-05    0.5256238569395499E-09    0.4106404105641559E-10   -0.2056133041605790E-12   -0.6832753460250807E-09
 -0.5996  -0.1201    0.6276614513566048E-01    0.4856368152907807E-02    0.2919662222948881E-04    0.3693115437337204E+00   -0.4484538235024820E+01   -0.2609377291039980E-05    0.6001846450387482E-09    0.3259664760335568E-10   -0.2018940570280847E-12   -0.6006454205537137E-09
 -0.6087  -0.1405    0.5996696133179254E-01    0.3657029164047559E-02    0.2820067559772977E-04    0.3858127070370781E+00   -0.3379148963817171E+01   -0.1964550429718622E-05    0.6555780224237751E-09    0.2479499938701224E-10   -0.2169375790117556E-12   -0.5168368788499578E-09
 -0.6171  -0.1594    0.5561057098077984E-01    0.2608824783592182E-02    0.2588240232854366E-04    0.4022132016137835E+00   -0.2413171511797130E+01   -0.1400991829357789E-05    0.6943796579395034E-09    0.1806486904509796E-10   -0.1950245520632166E-12   -0.4349565048411552E-09
 -0.6249  -0.1769    0.5019894792055018E-01    0.1745919719985979E-02    0.2263285215427648E-04    0.4182568681664625E+00   -0.1617897472696228E+01   -0.9370325485051316E-06    0.7199576282368447E-09    0.1255913428810373E-10   -0.2323419234784296E-12   -0.3575480883588611E-09
 -0.6319  -0.1926    0.4423530295759772E-01    0.1077518327768495E-02    0.1882983507735561E-04    0.4336504729969211E+00   -0.1001728642666990E+01   -0.5777254152941935E-06    0.7356832781857392E-09    0.8279689434065318E-11   -0.2068206716998588E-12   -0.2860258835335472E-09
 -0.6382  -0.2067    0.3817021033189689E-01    0.5940923236502729E-03    0.1475618060519345E-04    0.4480731446214538E+00   -0.5559476662440669E+00   -0.3178298648063358E-06    0.7444741698114932E-09    0.5107846871160726E-11   -0.2250977182427505E-12   -0.2211884234798456E-09
 -0.6437  -0.2191    0.3237883256782336E-01    0.2743145028515659E-03    0.1059263513733781E-04    0.4611982398914017E+00   -0.2608186849335608E+00   -0.1460247477187279E-06    0.7487043797438364E-09    0.2889268685413171E-11   -0.2524300213302411E-12   -0.1640204101011067E-09
 -0.6484  -0.2296    0.2715958639497630E-01    0.8994541419448759E-04    0.6492770083418903E-05    0.4727236541186813E+00   -0.9019001230837713E-01   -0.4698961847836884E-07    0.7502054810704095E-09    0.1475836813868980E-11   -0.2553929290272094E-12   -0.1146296035522965E-09
 -0.6522  -0.2383    0.2273856536844170E-01    0.7494870705440111E-05    0.2749786466453370E-05    0.4824008018208781E+00   -0.1275270769090958E-01   -0.3005219370363709E-08    0.7504856484527589E-09    0.7208192376317868E-12   -0.2695031697808048E-12   -0.7362825019813224E-10
 -0.6553  -0.2451    0.1926710068818271E-01   -0.1115096687408558E-04   -0.7634335550410261E-07    0.4900513938692732E+00    0.6753009785945919E-02    0.6683392998512784E-08    0.7506609516722365E-09    0.4407654796700911E-12   -0.3024201982587682E-12   -0.4143647447732435E-10
 -0.6574  -0.2499    0.1681059315281208E-01   -0.4928525692779809E-05   -0.1183676634424140E-05    0.4955663728106272E+00    0.3941633062976862E-02    0.2698552720813663E-08    0.7515480004820219E-09    0.3747935121978241E-12   -0.3334173215296943E-12   -0.1829486518875600E-10
 -0.6587  -0.2529    0.1535300306838383E-01   -0.2011115733265377E-06   -0.2011345153363413E-06    0.4988901651562772E+00    0.7006739923672676E-03    0.1713765067046645E-09    0.7529497930095636E-09    0.2234505440922019E-12   -0.2223264974898775E-12   -0.4790790051993621E-11
 -0.6592  -0.2538    0.1486766242878480E-01    0.0000000000000000E+00    0.0000000000000000E+00    0.5000000000000000E+00   -0.5847878143098019E-04    0.0000000000000000E+00    0.0000000000000000E+00    0.0000000000000000E+00    0.0000000000000000E+00    0.0000000000000000E+00
 -0.2495   0.6584    0.2600107060919929E-01    0.0000000000000000E+00    0.0000000000000000E+00   -0.5000000000000000E+00   -0.4534697278629115E-02    0.0000000000000000E+00    0.0000000000000000E+00    0.0000000000000000E+00    0.0000000000000000E+00    0.0000000000000000E+00
 -0.2499   0.6574    0.2647832847680299E-01    0.2007470650684740E-05   -0.6204730215803430E-05   -0.4951443193884784E+00   -0.7480549426373414E-02   -0.3058446825909913E-08    0.3130714125443301E-09   -0.1063320926534411E-11   -0.1476220187757171E-11    0.1074789660483050E-10
 -0.2512   0.6545    0.2787979295450418E-01    0.3149201646742548E-04   -0.3149622574295889E-04   -0.4806007985126835E+00   -0.1608467662433103E-01   -0.6254022461053163E-07    0.3110148198010032E-09   -0.3164919606772620E-11   -0.3590813410503380E-11    0.4281377596199176E-10
 -0.2534   0.6496    0.3013286396459252E-01    0.1526104259555471E-03   -0.6741192938278243E-04   -0.4564570341639581E+00   -0.3824279028521459E-01   -0.3329967557982430E-06    0.3077443855303841E-09   -0.4026189971695349E-11   -0.4410076470673374E-11    0.9657005750618453E-10
 -0.2564   0.6428    0.3315323703230220E-01    0.4241364341614560E-03   -0.9343288005702993E-04   -0.4229200461833818E+00   -0.8901716987318878E-01   -0.9452829232754393E-06    0.3049021451984046E-09   -0.3517283686527151E-11   -0.4606030834519714E-11    0.1723666296499227E-09
 -0.2603   0.6342    0.3682930163292794E-01    0.8449547168426367E-03   -0.1009603661262473E-03   -0.3804187112384922E+00   -0.1728400177736311E+00   -0.1884996729133869E-05    0.3030260903313930E-09   -0.2641609153641866E-11   -0.4482001575434325E-11    0.2713812265187077E-09
 -0.2650   0.6236    0.4097698143136549E-01    0.1351746670961689E-02   -0.9080927948861165E-04   -0.3297511766307503E+00   -0.2792475834550922E+00   -0.3003203719083873E-05    0.3018562136358760E-09   -0.2485636696469840E-11   -0.4233703665423860E-11    0.3960683586656799E-09
 -0.2705   0.6113    0.4531869677477766E-01    0.1848348053390956E-02   -0.6843391652689061E-04   -0.2722453486099324E+00   -0.3886914162004187E+00   -0.4084649129636585E-05    0.3004905838044358E-09   -0.3870154197116449E-11   -0.3984958196756594E-11    0.5500112587597528E-09
 -0.2767   0.5972    0.4949112302302051E-01    0.2242735815328818E-02   -0.4127943858379058E-04   -0.2098664017799392E+00   -0.4813158014124482E+00   -0.4927087632438918E-05    0.2976623843242709E-09   -0.7177564098626021E-11   -0.3731953981955805E-11    0.7384335434790223E-09