 title="result"
 variables="x","y","P","u","v","t","omega","psi","RES1","RES2","RES3","RES4"
zone,j= 49,i= 49,f=point
 -0.3851   0.5930    0.2498961301830878E-01    0.0000000000000000E+00    0.0000000000000000E+00   -0.5000000000000000E+00    0.0000000000000000E+00    0.0000000000000000E+00    0.0000000000000000E+00    0.0000000000000000E+00    0.0000000000000000E+00    0.0000000000000000E+00
 -0.3853   0.5920    0.2550943206541684E-01    0.0000000000000000E+00    0.0000000000000000E+00   -0.4957101823348203E+00   -0.6197458396091947E-04    0.0000000000000000E+00    0.0000000000000000E+00    0.0000000000000000E+00    0.0000000000000000E+00    0.0000000000000000E+00
 -0.3860   0.5888    0.2704270984632694E-01    0.0000000000000000E+00    0.0000000000000000E+00   -0.4828611289780664E+00   -0.4188628980886008E-02    0.0000000000000000E+00    0.0000000000000000E+00    0.0000000000000000E+00    0.0000000000000000E+00    0.0000000000000000E+00
 -0.3871   0.5836    0.2952957788455903E-01    0.0000000000000000E+00    0.0000000000000000E+00   -0.4615261414815647E+00   -0.1593637891631704E-01    0.0000000000000000E+00    0.0000000000000000E+00    0.0000000000000000E+00    0.0000000000000000E+00    0.0000000000000000E+00
 -0.3887   0.5764    0.3285959759164705E-01    0.0000000000000000E+00    0.0000000000000000E+00   -0.4318674601185412E+00   -0.2979742370680218E-01    0.0000000000000000E+00    0.0000000000000000E+00    0.0000000000000000E+00    0.0000000000000000E+00    0.0000000000000000E+00
 -0.3906   0.5671    0.3683678631894684E-01    0.0000000000000000E+00    0.0000000000000000E+00   -0.3941941619874598E+00   -0.3717447981551047E-01    0.0000000000000000E+00    0.0000000000000000E+00    0.0000000000000000E+00    0.0000000000000000E+00    0.0000000000000000E+00
 -0.3930   0.5558    0.4118785547613260E-01    0.0000000000000000E+00    0.0000000000000000E+00   -0.3490369385851791E+00   -0.3281085013692637E-01    0.0000000000000000E+00    0.0000000000000000E+00    0.0000000000000000E+00    0.0000000000000000E+00    0.0000000000000000E+00
 -0.3958   0.5426    0.4558128450307449E-01    0.0000000000000000E+00    0.0000000000000000E+00   -0.2972335679878768E+00   -0.1700315774652200E-01    0.0000000000000000E+00    0.0000000000000000E+00    0.0000000000000000E+00    0.0000000000000000E+00    0.0000000000000000E+00
 -0.3990   0.5275    0.4965202677468421E-01    0.0000000000000000E+00    0.0000000000000000E+00   -0.2400173540572930E+00    0.3717859785864116E-02    0.0000000000000000E+00    0.0000000000000000E+00    0.0000000000000000E+00    0.0000000000000000E+00    0.0000000000000000E+00
 -0.4026   0.5106    0.5303193877901329E-01    0.0000000000000000E+00    0.0000000000000000E+00   -0.1790930813706986E+00    0.1669922471536765E-01    0.0000000000000000E+00    0.0000000000000000E+00    0.0000000000000000E+00    0.0000000000000000E+00    0.0000000000000000E+00
 -0.4066   0.4920    0.5538713856185501E-01    0.0000000000000000E+00    0.0000000000000000E+00   -0.1166694389478534E+00    0.3840964747980674E-02    0.0000000000000000E+00    0.0000000000000000E+00    0.0000000000000000E+00    0.0000000000000000E+00    0.0000000000000000E+00
 -0.4109   0.4717    0.5645904406023311E-01    0.0000000000000000E+00    0.0000000000000000E+00   -0.5539921197785105E-01   -0.5614874117193781E-01    0.0000000000000000E+00    0.0000000000000000E+00    0.0000000000000000E+00    0.0000000000000000E+00    0.0000000000000000E+00
 -0.4156   0.4498    0.5609916577219353E-01    0.0000000000000000E+00    0.0000000000000000E+00    0.1828663917835149E-02   -0.1837522147191032E+00    0.0000000000000000E+00    0.0000000000000000E+00    0.0000000000000000E+00    0.0000000000000000E+00    0.0000000000000000E+00
 -0.4205   0.4264    0.5428582145528603E-01    0.0000000000000000E+00    0.0000000000000000E+00    0.5227775945914023E-01   -0.3945104826478079E+00    0.0000000000000000E+00    0.0000000000000000E+00    0.0000000000000000E+00    0.0000000000000000E+00    0.0000000000000000E+00
 -0.4258   0.4017    0.5111803477261696E-01    0.0000000000000000E+00    0.0000000000000000E+00    0.9388993750593477E-01   -0.6974955705933731E+00    0.0000000000000000E+00    0.0000000000000000E+00    0.0000000000000000E+00    0.0000000000000000E+00    0.0000000000000000E+00
 -0.4313   0.3757    0.4679250123862149E-01    0.0000000000000000E+00    0.0000000000000000E+00    0.1257842287140969E+00   -0.1097283922841787E+01    0.0000000000000000E+00    0.0000000000000000E+00    0.0000000000000000E+00    0.0000000000000000E+00    0.0000000000000000E+00
 -0.4371   0.3485    0.4157467557998860E-01    0.0000000000000000E+00    0.0000000000000000E+00    0.1484823638229819E+00   -0.1597152320320669E+01    0.0000000000000000E+00    0.0000000000000000E+00    0.0000000000000000E+00    0.0000000000000000E+00    0.0000000000000000E+00
 -0.4431   0.3203    0.3577286891382697E-01    0.0000000000000000E+00    0.0000000000000000E+00    0.1636895734982035E+00   -0.2200126034178768E+01    0.0000000000000000E+00    0.0000000000000000E+00    0.0000000000000000E+00    0.0000000000000000E+00    0.0000000000000000E+00
 -0.4493   0.2911    0.2972030620242799E-01    0.0000000000000000E+00    0.0000000000000000E+00    0.1737007510780333E+00   -0.2906707730215770E+01    0.0000000000000000E+00    0.0000000000000000E+00    0.0000000000000000E+00    0.0000000000000000E+00    0.0000000000000000E+00
 -0.4557   0.2612    0.2376600041198003E-01    0.0000000000000000E+00    0.0000000000000000E+00    0.1807298372830865E+00   -0.3710845573002228E+01    0.0000000000000000E+00    0.0000000000000000E+00    0.0000000000000000E+00    0.0000000000000000E+00    0.0000000000000000E+00
 -0.4622   0.2305    0.1826986376042064E-01    0.0000000000000000E+00    0.0000000000000000E+00    0.1864703065645981E+00   -0.4596606971395725E+01    0.0000000000000000E+00    0.0000000000000000E+00    0.0000000000000000E+00    0.0000000000000000E+00    0.0000000000000000E+00
 -0.4688   0.1994    0.1359357893874379E-01    0.0000000000000000E+00    0.0000000000000000E+00    0.1919936274642760E+00   -0.5537154755727823E+01    0.0000000000000000E+00    0.0000000000000000E+00    0.0000000000000000E+00    0.0000000000000000E+00    0.0000000000000000E+00
 -0.4755   0.1678    0.1008111954982417E-01    0.0000000000000000E+00    0.0000000000000000E+00    0.1978807768254791E+00   -0.6496227944131821E+01    0.0000000000000000E+00    0.0000000000000000E+00    0.0000000000000000E+00    0.0000000000000000E+00    0.0000000000000000E+00
 -0.4823   0.1359    0.8029504083665921E-02    0.0000000000000000E+00    0.0000000000000000E+00    0.2044167843021081E+00   -0.7431209262002788E+01    0.0000000000000000E+00    0.0000000000000000E+00    0.0000000000000000E+00    0.0000000000000000E+00    0.0000000000000000E+00
 -0.4891   0.1040    0.7655577829963095E-02    0.0000000000000000E+00    0.0000000000000000E+00    0.2117410409978394E+00   -0.8296482912945363E+01    0.0000000000000000E+00    0.0000000000000000E+00    0.0000000000000000E+00    0.0000000000000000E+00    0.0000000000000000E+00
 -0.4959   0.0720    0.9065042798774682E-02    0.0000000000000000E+00    0.0000000000000000E+00    0.2199303270827785E+00   -0.9046138895598713E+01    0.0000000000000000E+00    0.0000000000000000E+00    0.0000000000000000E+00    0.0000000000000000E+00    0.0000000000000000E+00
 -0.5026   0.0401    0.1222750648946340E-01    0.0000000000000000E+00    0.0000000000000000E+00    0.2290339527211364E+00   -0.9635875721287242E+01    0.0000000000000000E+00    0.0000000000000000E+00    0.0000000000000000E+00    0.0000000000000000E+00    0.0000000000000000E+00
 -0.5094   0.0085    0.1695933728201983E-01    0.0000000000000000E+00    0.0000000000000000E+00    0.2390845902901949E+00   -0.1002469395927698E+02    0.0000000000000000E+00    0.0000000000000000E+00    0.0000000000000000E+00    0.0000000000000000E+00    0.0000000000000000E+00
 -0.5160  -0.0226    0.2291680276256804E-01    0.0000000000000000E+00    0.0000000000000000E+00    0.2500992107652592E+00   -0.1017732295499347E+02    0.0000000000000000E+00    0.0000000000000000E+00    0.0000000000000000E+00    0.0000000000000000E+00    0.0000000000000000E+00
 -0.5225  -0.0533    0.2960455927146789E-01    0.0000000000000000E+00    0.0000000000000000E+00    0.2620766529571353E+00   -0.1006808938790633E+02    0.0000000000000000E+00    0.0000000000000000E+00    0.0000000000000000E+00    0.0000000000000000E+00    0.0000000000000000E+00
 -0.5289  -0.0832    0.3640666210414496E-01    0.0000000000000000E+00    0.0000000000000000E+00    0.2749944895578022E+00   -0.9686175410116578E+01    0.0000000000000000E+00    0.0000000000000000E+00    0.0000000000000000E+00    0.0000000000000000E+00    0.0000000000000000E+00
 -0.5351  -0.1124    0.4264545383059360E-01    0.0000000000000000E+00    0.0000000000000000E+00    0.2888064430916423E+00   -0.9041126115267520E+01    0.0000000000000000E+00    0.0000000000000000E+00    0.0000000000000000E+00    0.0000000000000000E+00    0.0000000000000000E+00
 -0.5411  -0.1406    0.4766624105208266E-01    0.0000000000000000E+00    0.0000000000000000E+00    0.3034410526297204E+00   -0.8166510233311049E+01    0.0000000000000000E+00    0.0000000000000000E+00    0.0000000000000000E+00    0.0000000000000000E+00    0.0000000000000000E+00
 -0.5468  -0.1678    0.5093380746170134E-01    0.0000000000000000E+00    0.0000000000000000E+00    0.3188017898175890E+00   -0.7119411876079688E+01    0.0000000000000000E+00    0.0000000000000000E+00    0.0000000000000000E+00    0.0000000000000000E+00    0.0000000000000000E+00
 -0.5524  -0.1938    0.5211649493581090E-01    0.0000000000000000E+00    0.0000000000000000E+00    0.3347681340247943E+00   -0.5974418646000598E+01    0.0000000000000000E+00    0.0000000000000000E+00    0.0000000000000000E+00    0.0000000000000000E+00    0.0000000000000000E+00
 -0.5576  -0.2185    0.5113208927455198E-01    0.0000000000000000E+00    0.0000000000000000E+00    0.3511963884438393E+00   -0.4812836801939397E+01    0.0000000000000000E+00    0.0000000000000000E+00    0.0000000000000000E+00    0.0000000000000000E+00    0.0000000000000000E+00
 -0.5626  -0.2419    0.4814104893034475E-01    0.0000000000000000E+00    0.0000000000000000E+00    0.3679186888986198E+00   -0.3710025603986115E+01    0.0000000000000000E+00    0.0000000000000000E+00    0.0000000000000000E+00    0.0000000000000000E+00    0.0000000000000000E+00
 -0.5672  -0.2637    0.4349191057425957E-01    0.0000000000000000E+00    0.0000000000000000E+00    0.3847392651658356E+00   -0.2724724453876777E+01    0.0000000000000000E+00    0.0000000000000000E+00    0.0000000000000000E+00    0.0000000000000000E+00    0.0000000000000000E+00
 -0.5715  -0.2841    0.3764058330909839E-01    0.0000000000000000E+00    0.0000000000000000E+00    0.4014288175777380E+00   -0.1893342985606188E+01    0.0000000000000000E+00    0.0000000000000000E+00    0.0000000000000000E+00    0.0000000000000000E+00    0.0000000000000000E+00
 -0.5755  -0.3027    0.3107049480002439E-01    0.0000000000000000E+00    0.0000000000000000E+00    0.4177203541240881E+00   -0.1230022285666060E+01    0.0000000000000000E+00    0.0000000000000000E+00    0.0000000000000000E+00    0.0000000000000000E+00    0.0000000000000000E+00
 -0.5791  -0.3196    0.2423359200934440E-01    0.0000000000000000E+00    0.0000000000000000E+00    0.4333115380591553E+00   -0.7310250118936896E+00    0.0000000000000000E+00    0.0000000000000000E+00    0.0000000000000000E+00    0.0000000000000000E+00    0.0000000000000000E+00
 -0.5823  -0.3347    0.1751918273470027E-01    0.0000000000000000E+00    0.0000000000000000E+00    0.4478777634068380E+00   -0.3808967448624492E+00    0.0000000000000000E+00    0.0000000000000000E+00    0.0000000000000000E+00    0.0000000000000000E+00    0.0000000000000000E+00
 -0.5851  -0.3479    0.1124604080417816E-01    0.0000000000000000E+00    0.0000000000000000E+00    0.4610961471060315E+00   -0.1577963771364206E+00    0.0000000000000000E+00    0.0000000000000000E+00    0.0000000000000000E+00    0.0000000000000000E+00    0.0000000000000000E+00
 -0.5875  -0.3592    0.5666917188496810E-02    0.0000000000000000E+00    0.0000000000000000E+00    0.4726749542244530E+00   -0.3655738466388901E-01    0.0000000000000000E+00    0.0000000000000000E+00    0.0000000000000000E+00    0.0000000000000000E+00    0.0000000000000000E+00
 -0.5895  -0.3685    0.9734012552022837E-03    0.0000000000000000E+00    0.0000000000000000E+00    0.4823789654668907E+00    0.1073628946091064E-01    0.0000000000000000E+00    0.0000000000000000E+00    0.0000000000000000E+00    0.0000000000000000E+00    0.0000000000000000E+00
 -0.5910  -0.3757   -0.2706390850956309E-02    0.0000000000000000E+00    0.0000000000000000E+00    0.4900419108041042E+00    0.1439707898299532E-01    0.0000000000000000E+00    0.0000000000000000E+00    0.0000000000000000E+00    0.0000000000000000E+00    0.0000000000000000E+00
 -0.5921  -0.3809   -0.5316278955968439E-02    0.0000000000000000E+00    0.0000000000000000E+00    0.4955626491431966E+00    0.4392205395617205E-02    0.0000000000000000E+00    0.0000000000000000E+00    0.0000000000000000E+00    0.0000000000000000E+00    0.0000000000000000E+00
 -0.5928  -0.3841   -0.6871962955777937E-02    0.0000000000000000E+00    0.0000000000000000E+00    0.4988892626907766E+00   -0.1059510252322042E-03    0.0000000000000000E+00    0.0000000000000000E+00    0.0000000000000000E+00    0.0000000000000000E+00    0.0000000000000000E+00
 -0.5930  -0.3851   -0.7392385720561746E-02    0.0000000000000000E+00    0.0000000000000000E+00    0.5000000000000000E+00    0.0000000000000000E+00    0.0000000000000000E+00    0.0000000000000000E+00    0.0000000000000000E+00    0.0000000000000000E+00    0.0000000000000000E+00
 -0.3841   0.5928    0.2510240499579784E-01    0.0000000000000000E+00    0.0000000000000000E+00   -0.5000000000000000E+00   -0.6214175112884475E-04    0.0000000000000000E+00    0.0000000000000000E+00    0.0000000000000000E+00    0.0000000000000000E+00    0.0000000000000000E+00
 -0.3843   0.5918    0.2562174802694987E-01    0.2004708468253273E-06   -0.2005627446276044E-06   -0.4957100806458772E+00   -0.5434369615969776E-03   -0.1352475545970496E-09    0.1096495300481094E-08    0.2217949673748165E-12    0.2109078970496947E-12   -0.8745459543178791E-11
 -0.3850   0.5886    0.2715455286926080E-01    0.4197095072221292E-05   -0.1047217875607167E-05   -0.4828607210321120E+00   -0.3799914611218082E-02   -0.2262900108532623E-08    0.1098037348112174E-08    0.4281887344692592E-12    0.2866804016399271E-12   -0.3528767425833856E-10
 -0.3861   0.5834    0.2963807230545946E-01    0.1540988674471527E-04   -0.1205018125382296E-05   -0.4615252186011072E+00   -0.1287140413196154E-01   -0.8568721830581709E-08    0.1100185981380009E-08    0.4228284389284909E-12    0.2882962965577995E-12   -0.7858166201080152E-10
 -0.3876   0.5761    0.3295948901179267E-01    0.2908355931446433E-04   -0.7673608945721008E-06   -0.4318658144939700E+00   -0.2458296388961508E-01   -0.1604052180498008E-07    0.1103071843285355E-08    0.6550662789983619E-13    0.3495606581971344E-12   -0.1392349742446175E-09
 -0.3896   0.5669    0.3692509197623822E-01    0.3664890090117763E-04   -0.1119933662148152E-06   -0.3941915949088051E+00   -0.3132374216391168E-01   -0.2018270720907684E-07    0.1106570424159146E-08   -0.8733309214692397E-12    0.3645203713528722E-12   -0.2159642187304911E-09
 -0.3920   0.5556    0.4126332678730159E-01    0.3253986791150239E-04    0.4594410804183160E-06   -0.3490332624211829E+00   -0.2803046624474993E-01   -0.1786048551400479E-07    0.1109932370080453E-08   -0.2455381384325328E-11    0.3630080177424722E-12   -0.3063002490533151E-09
 -0.3948   0.5424    0.4564384619431561E-01    0.1698732173964775E-04    0.7439268766832693E-06   -0.2972286091636689E+00   -0.1478312912022898E-01   -0.9311568796115680E-08    0.1112425774326548E-08   -0.4572302605976297E-11    0.3617817850853910E-12   -0.4055797642177339E-09
 -0.3980   0.5273    0.4970242109036817E-01   -0.3197658308259416E-05    0.6325887825674544E-06   -0.2400109703749409E+00    0.2193211727469946E-02    0.1861765981792334E-08    0.1113472501484622E-08   -0.6992968704100377E-11    0.3749041008194176E-12   -0.5037856590228706E-09
 -0.4016   0.5104    0.5307162763503472E-01   -0.1470064861444396E-04    0.5954759525131745E-07   -0.1790852026476148E+00    0.1070129658267037E-01    0.8432981721974797E-08    0.1112813746926016E-08   -0.9439863821181227E-11    0.3570379940049523E-12   -0.5850218642855509E-09
 -0.4056   0.4917    0.5541812603573639E-01    0.1559981101093139E-05   -0.9867496265194392E-06   -0.1166601299638727E+00   -0.6824148496842209E-02    0.1820081453343694E-09    0.1110221179746740E-08   -0.1167715923955370E-10    0.3179193019953175E-12   -0.6265917784631370E-09
 -0.4099   0.4714    0.5648362056124488E-01    0.6806178390806120E-04   -0.2442779854735243E-05   -0.5538874509783692E-01   -0.7107017252406028E-01   -0.3501592474830121E-07    0.1105208086507603E-08   -0.1355454637419484E-10    0.2743135579796885E-12   -0.5992400603505033E-09
 -0.4145   0.4496    0.5611953555598338E-01    0.2064743559793509E-03   -0.4162378041099958E-05    0.1839755186037693E-02   -0.2020480811484687E+00   -0.1087759831129092E-06    0.1096449967277757E-08   -0.1501832685990578E-10    0.2724591385838693E-12   -0.4708095024952286E-09
 -0.4195   0.4262    0.5430394635105616E-01    0.4333116822013264E-03   -0.5971939020034653E-05    0.5228869455328773E-01   -0.4150616498383773E+00   -0.2299837723489207E-06    0.1081467086022636E-08   -0.1607346894472172E-10    0.1970472396362055E-12   -0.2141647692521786E-09
 -0.4247   0.4015    0.5113571332333510E-01    0.7582813117281374E-03   -0.7747495663700114E-05    0.9389981925841741E-01   -0.7191829825588295E+00   -0.4038169920468513E-06    0.1056610120578338E-08   -0.1672288696408231E-10    0.1370015212387443E-12    0.1821223727382915E-09
 -0.4303   0.3754    0.4681157645258062E-01    0.1186293344728567E-02   -0.9457921502881806E-05    0.1257922835315658E+00   -0.1119005641555307E+01   -0.6329177426550051E-06    0.1017730923841276E-08   -0.1691575352014141E-10    0.6396272400621683E-13    0.7028313972479161E-09
 -0.4360   0.3483    0.4159698462273141E-01    0.1720765284005369E-02   -0.1112744209180496E-04    0.1484881878269845E+00   -0.1617641969033106E+01   -0.9191189806569229E-06    0.9611198954762035E-09   -0.1654389125693712E-10   -0.2266936638406492E-13    0.1303317301304396E-08
 -0.4420   0.3200    0.3579991074056353E-01    0.2364700426358470E-02   -0.1276416279027767E-04    0.1636932356205283E+00   -0.2217674200328851E+01   -0.1264079829380565E-05    0.8848387196558338E-09   -0.1543221106459214E-10   -0.1164138230258516E-12    0.1918533536898748E-08
 -0.4482   0.2909    0.2975276007277912E-01    0.3118295591464421E-02   -0.1430732821709219E-04    0.1737026868097878E+00   -0.2918968453737852E+01   -0.1667959092703783E-05    0.7890238497287871E-09   -0.1338301344744330E-10   -0.2118999420375189E-12    0.2481979082327723E-08
 -0.4546   0.2609    0.2380342210156644E-01    0.3974712283842270E-02   -0.1562907097638360E-04    0.1807306150973421E+00   -0.3714798564661499E+01   -0.2127165619800449E-05    0.6763152954336604E-09   -0.1013688785689304E-10   -0.3123196146148643E-12    0.2944858743143819E-08
 -0.4611   0.2303    0.1831062567062603E-01    0.4916612809118327E-02   -0.1656758537768390E-04    0.1864704190721946E+00   -0.4588706872676640E+01   -0.2632466061034396E-05    0.5514407507012375E-09   -0.5409971082226406E-11   -0.4236611061969597E-12    0.3285294623503335E-08
 -0.4677   0.1991    0.1363507714872073E-01    0.5915145914123519E-02   -0.1697279733842558E-04    0.1919933996047831E+00   -0.5513630118963555E+01   -0.3168440333419415E-05    0.4207504136766183E-09    0.1000283189611650E-11   -0.4937161790508071E-12    0.3505743711388482E-08
 -0.4745   0.1676    0.1012007382492035E-01    0.6931579424426044E-02   -0.1673463079273488E-04    0.1978803791281598E+00   -0.6453469168523586E+01   -0.3714341212751206E-05    0.2917717734085556E-09    0.9132736233929961E-11   -0.5509065426068105E-12    0.3622615296714621E-08
 -0.4812   0.1357    0.8062281140735744E-02    0.7920592546958571E-02   -0.1579307002967489E-04    0.2044162885933172E+00   -0.7366173581924003E+01   -0.4245854045343162E-05    0.1725376889971653E-09    0.1877972777286629E-10   -0.5859618346093498E-12    0.3657380910279673E-08
 -0.4880   0.1037    0.7678399674020134E-02    0.8833850003808097E-02   -0.1412528164117953E-04    0.2117404703276909E+00   -0.8207057185601233E+01   -0.4737021099796130E-05    0.7096690943231287E-10    0.2946023980321399E-10   -0.5845879336163762E-12    0.3629787886059999E-08
 -0.4948   0.0717    0.9074117021505930E-02    0.9622867070601259E-02   -0.1173018441472592E-04    0.2199296851366916E+00   -0.8931452036350432E+01   -0.5161766451881566E-05   -0.6133805269259440E-11    0.4046490920117662E-10   -0.5355785259730794E-12    0.3555707131508434E-08
 -0.5016   0.0399    0.1221906704802207E-01    0.1024102074834657E-01   -0.8615441236499142E-05    0.2290332372699495E+00   -0.9496555227163901E+01   -0.5494997659953330E-05   -0.5390992166565134E-10    0.5092898325287365E-10   -0.4525338437311177E-12    0.3447131333850217E-08
 -0.5083   0.0083    0.1692973752394273E-01    0.1064533962995769E-01   -0.4804883850743362E-05    0.2390837984791024E+00   -0.9863089378870320E+01   -0.5713540829965046E-05   -0.7015350453332125E-10    0.5991840357211231E-10   -0.3496820888404528E-12    0.3313200965318619E-08
 -0.5149  -0.0228    0.2286269224315485E-01    0.1079906279574248E-01   -0.3591541080612274E-06    0.2500983411162987E+00   -0.9997644396087908E+01   -0.5797551383016672E-05   -0.5607576761875593E-10    0.6657396856013520E-10   -0.1643403295392698E-12    0.3159959226575748E-08
 -0.5214  -0.0535    0.2952326045173473E-01    0.1067569968353113E-01    0.4587705047780225E-05    0.2620757060857779E+00   -0.9876408352355748E+01   -0.5732660342262029E-05   -0.1627522595859521E-10    0.7015232839080454E-10    0.3154074224021031E-13    0.2992037716545437E-08
 -0.5278  -0.0834    0.3629666783608024E-01    0.1026451846571853E-01    0.9799817794905380E-05    0.2749934681352905E+00   -0.9490145541304180E+01   -0.5512986511313338E-05    0.4153506358295367E-10    0.7015793501707890E-10    0.2533737109011724E-12    0.2813430946546625E-08
 -0.5340  -0.1126    0.4250700225301594E-01    0.9576253436720363E-02    0.1492784090602806E-04    0.2888053510864141E+00   -0.8849371592544706E+01   -0.5144167026044824E-05    0.1074118502475407E-09    0.6644795824684024E-10    0.4628242233906121E-12    0.2625465143901717E-08
 -0.5400  -0.1408    0.4750170612472514E-01    0.8646840361989068E-02    0.1954174982193594E-04    0.3034398938855394E+00   -0.7987647518831460E+01   -0.4645457138955482E-05    0.1708156671664796E-09    0.5938832758900503E-10    0.6675771047071066E-12    0.2430647433326882E-08
 -0.5458  -0.1680    0.5074777037386138E-01    0.7536773309799691E-02    0.2320001823240266E-04    0.3188005663333882E+00   -0.6960913173154930E+01   -0.4049324867147578E-05    0.2225295780977632E-09    0.4972555700533121E-10    0.8423262087831063E-12    0.2229842603965193E-08
 -0.5513  -0.1940    0.5191529160906340E-01    0.6324726935585803E-02    0.2555087031167611E-04    0.3347668447435317E+00   -0.5841552518855559E+01   -0.3398117958490808E-05    0.2564052165032749E-09    0.3863559472350175E-10    0.9749839824380047E-12    0.2024357452501402E-08
 -0.5566  -0.2187    0.5092297335337646E-01    0.5096235744067180E-02    0.2641564002654988E-04    0.3511950296880088E+00   -0.4708065526308883E+01   -0.2737858344442868E-05    0.2704492116367696E-09    0.2740668803014046E-10    0.1041902675247286E-11    0.1815618018777276E-08
 -0.5615  -0.2421    0.4793111128862078E-01    0.3930460144212220E-02    0.2583280995787969E-04    0.3679172575072550E+00   -0.3632967537676973E+01   -0.2111223542111358E-05    0.2665784953892469E-09    0.1722472164900068E-10    0.1101521651669657E-11    0.1605815836205893E-08
 -0.5662  -0.2640    0.4328718239072562E-01    0.2889060894489723E-02    0.2402702154366872E-04    0.3847377645998310E+00   -0.2672728056100298E+01   -0.1551394464287013E-05    0.2496409468033534E-09    0.8918921157174964E-11    0.1116592929228943E-11    0.1395797352699013E-08
 -0.5705  -0.2843    0.3744546551404181E-01    0.2010262815265068E-02    0.2133692533916216E-04    0.4014272657604241E+00   -0.1862331066862106E+01   -0.1079015185781006E-05    0.2254956638081396E-09    0.2882069582987867E-11    0.1103062086116324E-11    0.1189328158526792E-08
 -0.5745  -0.3029    0.3088773322670837E-01    0.1308926507555740E-02    0.1811118898430677E-04    0.4177187900479636E+00   -0.1215419979895788E+01   -0.7020308137409771E-06    0.1996040902008112E-09   -0.9320530458545306E-12    0.1019725970330398E-11    0.9894944481836365E-09
 -0.5781  -0.3198    0.2406455815751381E-01    0.7811311965004439E-03    0.1463961257529707E-04    0.4333100232289578E+00   -0.7283814418728825E+00   -0.4183995905780229E-06    0.1759481171870192E-09   -0.2876501120629982E-11    0.9849343562962076E-12    0.8000470078095567E-09
 -0.5813  -0.3349    0.1736440714587740E-01    0.4105816431741731E-03    0.1110751112268363E-04    0.4478763750409009E+00   -0.3862623688495589E+00   -0.2192681721574060E-06    0.1568001457841195E-09   -0.3462658978992117E-11    0.9583792093259547E-12    0.6237681447751608E-09
 -0.5841  -0.3481    0.1110552546039753E-01    0.1741555018831058E-03    0.7633151524645329E-05    0.4610949629384584E+00   -0.1676627157709997E+00   -0.9232173231187816E-07    0.1428014859139459E-09   -0.3217412447575896E-11    0.9426695535275087E-12    0.4649725864752652E-09
 -0.5865  -0.3594    0.5540159711120699E-02    0.4506267863020310E-04    0.4325966906022827E-05    0.4726740327638858E+00   -0.4775894068878010E-01   -0.2305615016127481E-07    0.1335620416348382E-09   -0.2613603777845697E-11    0.9231955477861931E-12    0.3260673311217266E-09
 -0.5884  -0.3687    0.8587057226557066E-03   -0.6457793129339152E-05    0.1449942724327536E-05    0.4823783287938848E+00    0.1232648491364543E-02    0.4303557817432784E-08    0.1277564837774692E-09   -0.1993780140985280E-11    0.9249450164117157E-12    0.2100708782273863E-09
 -0.5900  -0.3759   -0.2813107466883044E-02   -0.1261442543576408E-04   -0.5573558225901766E-06    0.4900415374027952E+00    0.9027981241426676E-02    0.7298898214208368E-08    0.1239093922952850E-09   -0.1556485842990618E-11    0.9103822296713249E-12    0.1188577630414911E-09
 -0.5911  -0.3812   -0.5422553677312579E-02   -0.4310619333916886E-05   -0.1106968273877524E-05    0.4955624805609335E+00    0.3751835607810708E-02    0.2316334648579483E-08    0.1198551553144300E-09   -0.1284210151414333E-11    0.9801794792485552E-12    0.5287805328151041E-10
 -0.5918  -0.3843   -0.6980563488772381E-02   -0.1405407598778101E-06   -0.1407625019172060E-06    0.4988892204075868E+00    0.5880824753767232E-03    0.1206096935832380E-09    0.1154017515228589E-09   -0.6827136512371768E-12    0.6947602215756632E-12    0.1343948330444558E-10
 -0.5920  -0.3853   -0.7501110466074198E-02    0.0000000000000000E+00    0.0000000000000000E+00    0.5000000000000000E+00   -0.1054204153849631E-03    0.0000000000000000E+00    0.0000000000000000E+00    0.0000000000000000E+00    0.0000000000000000E+00    0.0000000000000000E+00
 -0.3809   0.5921    0.2543737703380097E-01    0.0000000000000000E+00    0.0000000000000000E+00   -0.5000000000000000E+00   -0.4188148245130803E-02    0.0000000000000000E+00    0.0000000000000000E+00    0.0000000000000000E+00    0.0000000000000000E+00    0.0000000000000000E+00
 -0.3812   0.5911    0.2595433441209737E-01    0.1046656709236602E-05   -0.4196429827872809E-05   -0.4957085669210479E+00   -0.3799079862446961E-02   -0.2262547141652037E-08    0.1097788196501373E-08    0.3032788863793767E-12    0.3526191925257161E-12   -0.8400432476365904E-11
 -0.3818   0.5880    0.2748284941061589E-01    0.1267972650204891E-04   -0.1268239040476612E-04   -0.4828546589655675E+00   -0.3399082936753082E-02   -0.3097090872352152E-07    0.1098456363195222E-08    0.9291907521191689E-12    0.8995265469990965E-12   -0.3511210289533495E-10
 -0.3829   0.5827    0.2995644465999168E-01    0.4508979601841465E-04   -0.1581876383615179E-04   -0.4615115378739377E+00   -0.5858806180111783E-02   -0.1114481760622841E-06    0.1100083297893295E-08    0.1019973168425725E-11    0.1310877188048787E-11   -0.7871863577646465E-10
 -0.3845   0.5755    0.3325581250949877E-01    0.8756389730752879E-04   -0.1078339405752806E-04   -0.4318414314917678E+00   -0.1168286856368993E-01   -0.2133763885909192E-06    0.1102645348291520E-08   -0.3012538135616083E-12    0.1742809022098335E-11   -0.1391555950330803E-09
 -0.3865   0.5662    0.3718991344103954E-01    0.1136085131886122E-03   -0.1910439506590700E-05   -0.3941534863355587E+00   -0.1651823990697090E-01   -0.2731227746361860E-06    0.1105845982927317E-08   -0.3767864492632000E-11    0.2118201555996457E-11   -0.2159928867706551E-09
 -0.3888   0.5549    0.4149185149199510E-01    0.1031021031392964E-03    0.6057297111095970E-05   -0.3489785183684790E+00   -0.1610853501206383E-01   -0.2451637078172807E-06    0.1109052621874745E-08   -0.9648608301215944E-11    0.2384954863807187E-11   -0.3064645308359371E-09
 -0.3917   0.5417    0.4583493648362352E-01    0.5634624727278454E-04    0.9924193793682167E-05   -0.2971545348068316E+00   -0.1017824918779749E-01   -0.1307911618728024E-06    0.1111522352457983E-08   -0.1759127348996414E-10    0.2463196530425038E-11   -0.4056964417187281E-09
 -0.3949   0.5266    0.4985765754988744E-01   -0.1410858814599371E-05    0.7822257715980986E-05   -0.2399154092108640E+00   -0.4005396899485967E-02    0.1430315974903981E-07    0.1112684265038022E-08   -0.2674108417338728E-10    0.2388506168023163E-11   -0.5038560194070563E-09