 title="result"
 variables="x","y","P","u","v","t","omega","psi","RES1","RES2","RES3","RES4"
zone,j= 49,i= 49,f=point
 -0.1928   0.6803    0.2427973208930599E-01    0.0000000000000000E+00    0.0000000000000000E+00   -0.5000000000000000E+00    0.0000000000000000E+00    0.0000000000000000E+00    0.0000000000000000E+00    0.0000000000000000E+00    0.0000000000000000E+00    0.0000000000000000E+00
 -0.1933   0.6794    0.2474475198670907E-01    0.0000000000000000E+00    0.0000000000000000E+00   -0.4949135882997612E+00    0.5185156984829855E-03    0.0000000000000000E+00    0.0000000000000000E+00    0.0000000000000000E+00    0.0000000000000000E+00    0.0000000000000000E+00
 -0.1949   0.6766    0.2608064082864633E-01    0.0000000000000000E+00    0.0000000000000000E+00   -0.4796793431806265E+00   -0.4825326775138140E-02    0.0000000000000000E+00    0.0000000000000000E+00    0.0000000000000000E+00    0.0000000000000000E+00    0.0000000000000000E+00
 -0.1975   0.6719    0.2820603352394111E-01    0.0000000000000000E+00    0.0000000000000000E+00   -0.4543920608986556E+00   -0.4720149855631815E-01    0.0000000000000000E+00    0.0000000000000000E+00    0.0000000000000000E+00    0.0000000000000000E+00    0.0000000000000000E+00
 -0.2011   0.6654    0.3109561383303783E-01    0.0000000000000000E+00    0.0000000000000000E+00   -0.4192811901900453E+00   -0.1499097050480296E+00    0.0000000000000000E+00    0.0000000000000000E+00    0.0000000000000000E+00    0.0000000000000000E+00    0.0000000000000000E+00
 -0.2057   0.6572    0.3470060944526628E-01    0.0000000000000000E+00    0.0000000000000000E+00   -0.3748339383462269E+00   -0.3084405766664257E+00    0.0000000000000000E+00    0.0000000000000000E+00    0.0000000000000000E+00    0.0000000000000000E+00    0.0000000000000000E+00
 -0.2113   0.6471    0.3887681762765201E-01    0.0000000000000000E+00    0.0000000000000000E+00   -0.3219755731497527E+00   -0.4965715295109527E+00    0.0000000000000000E+00    0.0000000000000000E+00    0.0000000000000000E+00    0.0000000000000000E+00    0.0000000000000000E+00
 -0.2179   0.6353    0.4336009382283995E-01    0.0000000000000000E+00    0.0000000000000000E+00   -0.2622602252923063E+00   -0.6768221161124246E+00    0.0000000000000000E+00    0.0000000000000000E+00    0.0000000000000000E+00    0.0000000000000000E+00    0.0000000000000000E+00
 -0.2254   0.6218    0.4777025471129642E-01    0.0000000000000000E+00    0.0000000000000000E+00   -0.1979753812305649E+00   -0.8133911130229626E+00    0.0000000000000000E+00    0.0000000000000000E+00    0.0000000000000000E+00    0.0000000000000000E+00    0.0000000000000000E+00
 -0.2339   0.6068    0.5165423698156685E-01    0.0000000000000000E+00    0.0000000000000000E+00   -0.1320555962284766E+00   -0.8850592077664931E+00    0.0000000000000000E+00    0.0000000000000000E+00    0.0000000000000000E+00    0.0000000000000000E+00    0.0000000000000000E+00
 -0.2431   0.5901    0.5455827303909994E-01    0.0000000000000000E+00    0.0000000000000000E+00   -0.6776798557205223E-01   -0.8951768940522784E+00    0.0000000000000000E+00    0.0000000000000000E+00    0.0000000000000000E+00    0.0000000000000000E+00    0.0000000000000000E+00
 -0.2533   0.5720    0.5612020408337730E-01    0.0000000000000000E+00    0.0000000000000000E+00   -0.8246001227836110E-02   -0.8737241112451029E+00    0.0000000000000000E+00    0.0000000000000000E+00    0.0000000000000000E+00    0.0000000000000000E+00    0.0000000000000000E+00
 -0.2642   0.5525    0.5614726795434268E-01    0.0000000000000000E+00    0.0000000000000000E+00    0.4397612649219497E-01   -0.8680667707089534E+00    0.0000000000000000E+00    0.0000000000000000E+00    0.0000000000000000E+00    0.0000000000000000E+00    0.0000000000000000E+00
 -0.2758   0.5316    0.5464469165820789E-01    0.0000000000000000E+00    0.0000000000000000E+00    0.8729663480659830E-01   -0.9258828110549164E+00    0.0000000000000000E+00    0.0000000000000000E+00    0.0000000000000000E+00    0.0000000000000000E+00    0.0000000000000000E+00
 -0.2881   0.5095    0.5177955883536290E-01    0.0000000000000000E+00    0.0000000000000000E+00    0.1211948485729214E+00   -0.1080426345872601E+01    0.0000000000000000E+00    0.0000000000000000E+00    0.0000000000000000E+00    0.0000000000000000E+00    0.0000000000000000E+00
 -0.3011   0.4863    0.4780935893380636E-01    0.0000000000000000E+00    0.0000000000000000E+00    0.1461978441058242E+00   -0.1346794074867234E+01    0.0000000000000000E+00    0.0000000000000000E+00    0.0000000000000000E+00    0.0000000000000000E+00    0.0000000000000000E+00
 -0.3147   0.4620    0.4301960753027313E-01    0.0000000000000000E+00    0.0000000000000000E+00    0.1636768807867604E+00   -0.1727920109920033E+01    0.0000000000000000E+00    0.0000000000000000E+00    0.0000000000000000E+00    0.0000000000000000E+00    0.0000000000000000E+00
 -0.3287   0.4369    0.3769568019463487E-01    0.0000000000000000E+00    0.0000000000000000E+00    0.1754996569860503E+00   -0.2221973018335173E+01    0.0000000000000000E+00    0.0000000000000000E+00    0.0000000000000000E+00    0.0000000000000000E+00    0.0000000000000000E+00
 -0.3433   0.4108    0.3212081098483281E-01    0.0000000000000000E+00    0.0000000000000000E+00    0.1836171214864800E+00   -0.2825087054800688E+01    0.0000000000000000E+00    0.0000000000000000E+00    0.0000000000000000E+00    0.0000000000000000E+00    0.0000000000000000E+00
 -0.3582   0.3841    0.2658370497289824E-01    0.0000000000000000E+00    0.0000000000000000E+00    0.1897115818779062E+00   -0.3529876105965648E+01    0.0000000000000000E+00    0.0000000000000000E+00    0.0000000000000000E+00    0.0000000000000000E+00    0.0000000000000000E+00
 -0.3735   0.3568    0.2138385066745542E-01    0.0000000000000000E+00    0.0000000000000000E+00    0.1950115537556256E+00   -0.4322971622746516E+01    0.0000000000000000E+00    0.0000000000000000E+00    0.0000000000000000E+00    0.0000000000000000E+00    0.0000000000000000E+00
 -0.3890   0.3289    0.1683008859060904E-01    0.0000000000000000E+00    0.0000000000000000E+00    0.2002898836251723E+00   -0.5183833302417561E+01    0.0000000000000000E+00    0.0000000000000000E+00    0.0000000000000000E+00    0.0000000000000000E+00    0.0000000000000000E+00
 -0.4047   0.3008    0.1322979366272745E-01    0.0000000000000000E+00    0.0000000000000000E+00    0.2059761465350011E+00   -0.6085236347448352E+01    0.0000000000000000E+00    0.0000000000000000E+00    0.0000000000000000E+00    0.0000000000000000E+00    0.0000000000000000E+00
 -0.4206   0.2723    0.1087017877379429E-01    0.0000000000000000E+00    0.0000000000000000E+00    0.2122922967313321E+00   -0.6994915131951148E+01    0.0000000000000000E+00    0.0000000000000000E+00    0.0000000000000000E+00    0.0000000000000000E+00    0.0000000000000000E+00
 -0.4365   0.2438    0.9995051785047317E-02    0.0000000000000000E+00    0.0000000000000000E+00    0.2193552214130470E+00   -0.7877415017536686E+01    0.0000000000000000E+00    0.0000000000000000E+00    0.0000000000000000E+00    0.0000000000000000E+00    0.0000000000000000E+00
 -0.4525   0.2152    0.1078121760671923E-01    0.0000000000000000E+00    0.0000000000000000E+00    0.2272346444528201E+00   -0.8695388524760236E+01    0.0000000000000000E+00    0.0000000000000000E+00    0.0000000000000000E+00    0.0000000000000000E+00    0.0000000000000000E+00
 -0.4684   0.1868    0.1331582977525648E-01    0.0000000000000000E+00    0.0000000000000000E+00    0.2359786072040880E+00   -0.9410021252485231E+01    0.0000000000000000E+00    0.0000000000000000E+00    0.0000000000000000E+00    0.0000000000000000E+00    0.0000000000000000E+00
 -0.4841   0.1586    0.1757454671060506E-01    0.0000000000000000E+00    0.0000000000000000E+00    0.2456216105740127E+00   -0.9981017083740321E+01    0.0000000000000000E+00    0.0000000000000000E+00    0.0000000000000000E+00    0.0000000000000000E+00    0.0000000000000000E+00
 -0.4996   0.1308    0.2340004574146930E-01    0.0000000000000000E+00    0.0000000000000000E+00    0.2561851049590423E+00   -0.1036706987546280E+02    0.0000000000000000E+00    0.0000000000000000E+00    0.0000000000000000E+00    0.0000000000000000E+00    0.0000000000000000E+00
 -0.5149   0.1035    0.3048409543364955E-01    0.0000000000000000E+00    0.0000000000000000E+00    0.2676749554098264E+00   -0.1052801934526239E+02    0.0000000000000000E+00    0.0000000000000000E+00    0.0000000000000000E+00    0.0000000000000000E+00    0.0000000000000000E+00
 -0.5298   0.0767    0.3836099425565517E-01    0.0000000000000000E+00    0.0000000000000000E+00    0.2800778927506739E+00   -0.1042953296876156E+02    0.0000000000000000E+00    0.0000000000000000E+00    0.0000000000000000E+00    0.0000000000000000E+00    0.0000000000000000E+00
 -0.5444   0.0507    0.4642456310361298E-01    0.0000000000000000E+00    0.0000000000000000E+00    0.2933580400464104E+00   -0.1005033037932419E+02    0.0000000000000000E+00    0.0000000000000000E+00    0.0000000000000000E+00    0.0000000000000000E+00    0.0000000000000000E+00
 -0.5584   0.0255    0.5397971711622025E-01    0.0000000000000000E+00    0.0000000000000000E+00    0.3074543447473228E+00   -0.9390507990657204E+01    0.0000000000000000E+00    0.0000000000000000E+00    0.0000000000000000E+00    0.0000000000000000E+00    0.0000000000000000E+00
 -0.5720   0.0012    0.6033086042895907E-01    0.0000000000000000E+00    0.0000000000000000E+00    0.3222795115162146E+00   -0.8478155829514973E+01    0.0000000000000000E+00    0.0000000000000000E+00    0.0000000000000000E+00    0.0000000000000000E+00    0.0000000000000000E+00
 -0.5849  -0.0220    0.6489289741229329E-01    0.0000000000000000E+00    0.0000000000000000E+00    0.3377205132709418E+00   -0.7370809903934362E+01    0.0000000000000000E+00    0.0000000000000000E+00    0.0000000000000000E+00    0.0000000000000000E+00    0.0000000000000000E+00
 -0.5973  -0.0441    0.6729464520152600E-01    0.0000000000000000E+00    0.0000000000000000E+00    0.3536399450774327E+00   -0.6149507913102024E+01    0.0000000000000000E+00    0.0000000000000000E+00    0.0000000000000000E+00    0.0000000000000000E+00    0.0000000000000000E+00
 -0.6089  -0.0649    0.6743970554904863E-01    0.0000000000000000E+00    0.0000000000000000E+00    0.3698766845620242E+00   -0.4905982629681132E+01    0.0000000000000000E+00    0.0000000000000000E+00    0.0000000000000000E+00    0.0000000000000000E+00    0.0000000000000000E+00
 -0.6198  -0.0844    0.6550328306100982E-01    0.0000000000000000E+00    0.0000000000000000E+00    0.3862441563251646E+00   -0.3726812553814487E+01    0.0000000000000000E+00    0.0000000000000000E+00    0.0000000000000000E+00    0.0000000000000000E+00    0.0000000000000000E+00
 -0.6299  -0.1026    0.6186938782962058E-01    0.0000000000000000E+00    0.0000000000000000E+00    0.4025256279804273E+00   -0.2679759476827583E+01    0.0000000000000000E+00    0.0000000000000000E+00    0.0000000000000000E+00    0.0000000000000000E+00    0.0000000000000000E+00
 -0.6392  -0.1192    0.5703574934786614E-01    0.0000000000000000E+00    0.0000000000000000E+00    0.4184685166051600E+00   -0.1806485009553323E+01    0.0000000000000000E+00    0.0000000000000000E+00    0.0000000000000000E+00    0.0000000000000000E+00    0.0000000000000000E+00
 -0.6477  -0.1343    0.5152117251033143E-01    0.0000000000000000E+00    0.0000000000000000E+00    0.4337825933952124E+00   -0.1122589083993696E+01    0.0000000000000000E+00    0.0000000000000000E+00    0.0000000000000000E+00    0.0000000000000000E+00    0.0000000000000000E+00
 -0.6552  -0.1478    0.4579997165024237E-01    0.0000000000000000E+00    0.0000000000000000E+00    0.4481480250670534E+00   -0.6230494923535674E+00    0.0000000000000000E+00    0.0000000000000000E+00    0.0000000000000000E+00    0.0000000000000000E+00    0.0000000000000000E+00
 -0.6618  -0.1595    0.4027092770400699E-01    0.0000000000000000E+00    0.0000000000000000E+00    0.4612363559008839E+00   -0.2892573426817438E+00    0.0000000000000000E+00    0.0000000000000000E+00    0.0000000000000000E+00    0.0000000000000000E+00    0.0000000000000000E+00
 -0.6674  -0.1696    0.3525205222881146E-01    0.0000000000000000E+00    0.0000000000000000E+00    0.4727411125473430E+00   -0.9453306783880318E-01    0.0000000000000000E+00    0.0000000000000000E+00    0.0000000000000000E+00    0.0000000000000000E+00    0.0000000000000000E+00
 -0.6720  -0.1779    0.3098526924753461E-01    0.0000000000000000E+00    0.0000000000000000E+00    0.4824082020377795E+00   -0.6211829694703243E-02    0.0000000000000000E+00    0.0000000000000000E+00    0.0000000000000000E+00    0.0000000000000000E+00    0.0000000000000000E+00
 -0.6756  -0.1844    0.2763472451486468E-01    0.0000000000000000E+00    0.0000000000000000E+00    0.4900544278450970E+00    0.1366489588486969E-01    0.0000000000000000E+00    0.0000000000000000E+00    0.0000000000000000E+00    0.0000000000000000E+00    0.0000000000000000E+00
 -0.6782  -0.1890    0.2527537478478759E-01    0.0000000000000000E+00    0.0000000000000000E+00    0.4955675232182594E+00    0.5702155172237392E-02    0.0000000000000000E+00    0.0000000000000000E+00    0.0000000000000000E+00    0.0000000000000000E+00    0.0000000000000000E+00
 -0.6798  -0.1918    0.2388363227766470E-01    0.0000000000000000E+00    0.0000000000000000E+00    0.4988904411807789E+00   -0.4048138172802847E-04    0.0000000000000000E+00    0.0000000000000000E+00    0.0000000000000000E+00    0.0000000000000000E+00    0.0000000000000000E+00
 -0.6803  -0.1928    0.2342049020506101E-01    0.0000000000000000E+00    0.0000000000000000E+00    0.5000000000000000E+00    0.0000000000000000E+00    0.0000000000000000E+00    0.0000000000000000E+00    0.0000000000000000E+00    0.0000000000000000E+00    0.0000000000000000E+00
 -0.1918   0.6798    0.2454064595611937E-01    0.0000000000000000E+00    0.0000000000000000E+00   -0.5000000000000000E+00    0.5190860837251710E-03    0.0000000000000000E+00    0.0000000000000000E+00    0.0000000000000000E+00    0.0000000000000000E+00    0.0000000000000000E+00
 -0.1924   0.6789    0.2500433962381284E-01   -0.3323054708700040E-07    0.3356694572023635E-07   -0.4949134281350245E+00   -0.7132254637012879E-03    0.4026116680022406E-10   -0.1131196313865473E-08   -0.5364567297327927E-12   -0.5460692661940492E-12    0.1301744757993550E-10
 -0.1939   0.6761    0.2634281165567592E-01    0.7249264194747352E-05   -0.2479231163683393E-05   -0.4796786915638668E+00   -0.9270855148880540E-02   -0.3491054663669660E-08   -0.1135115225772698E-08   -0.1033496205282702E-11   -0.8001065088247827E-12    0.5181494122652452E-10
 -0.1965   0.6714    0.2847328061210178E-01    0.5110378674076080E-04   -0.6215016934913376E-05   -0.4543905234414902E+00   -0.4857184308597751E-01   -0.2731482036520270E-07   -0.1139485858100975E-08   -0.8963355231650372E-12   -0.7908326771222107E-12    0.1158952100954735E-09
 -0.2001   0.6649    0.3135765680910731E-01    0.1563978726505695E-03   -0.8762093983421199E-05   -0.4192782651940188E+00   -0.1425247978894370E+00   -0.8442006825671597E-07   -0.1143474342990558E-08   -0.1395758508770939E-12   -0.8329170686494081E-12    0.2051145850390235E-09
 -0.2048   0.6566    0.3494322355869210E-01    0.3205101352541469E-03   -0.9583520109490093E-05   -0.3748290695106818E+00   -0.2904916896012467E+00   -0.1732824421188607E-06   -0.1146649799416144E-08    0.1325314857858473E-11   -0.8369763215831938E-12    0.3171379409083741E-09
 -0.2104   0.6466    0.3908732115068881E-01    0.5169870044611393E-03   -0.8598307587455692E-05   -0.3219682981930151E+00   -0.4693884195632425E+00   -0.2793024465747815E-06   -0.1147968078235584E-08    0.3310615670493178E-11   -0.8646902638353993E-12    0.4485345359017678E-09
 -0.2170   0.6348    0.4352877403590728E-01    0.7069139401622489E-03   -0.6438993601159836E-05   -0.2622503675802437E+00   -0.6439348174487713E+00   -0.3815181547240411E-06   -0.1146952725503136E-08    0.5470943142960039E-11   -0.8323203237736720E-12    0.5901214933379251E-09
 -0.2245   0.6213    0.4789212990634328E-01    0.8526171723330801E-03   -0.3719231984445161E-05   -0.1979631942144331E+00   -0.7795695004780894E+00   -0.4595900254828312E-06   -0.1143483904786358E-08    0.7394695966667086E-11   -0.8117187477729715E-12    0.7294450876660363E-09
 -0.2329   0.6062    0.5172958837531757E-01    0.9314685867981554E-03   -0.1268238385237250E-05   -0.1320417707127472E+00   -0.8552132716965405E+00   -0.5014277592741635E-06   -0.1137899920556490E-08    0.8680500762636711E-11   -0.7802508639187522E-12    0.8489661612598454E-09
 -0.2422   0.5896    0.5459251198091296E-01    0.9465348213880090E-03    0.2773164859218888E-06   -0.6775349758927006E-01   -0.8732517751020756E+00   -0.5087386336710541E-06   -0.1130696625141914E-08    0.9012735002755790E-11   -0.7178812665847856E-12    0.9284146368360169E-09
 -0.2523   0.5715    0.5612226700729323E-01    0.9288942227054623E-03    0.4925347789677758E-06   -0.8231876662044935E-02   -0.8617506118948479E+00   -0.4983541462945062E-06   -0.1122573957401674E-08    0.8205838786246034E-11   -0.7040531352364710E-12    0.9464319467022975E-09
 -0.2632   0.5519    0.5612720815457466E-01    0.9280770131902657E-03   -0.5424846522600706E-06    0.4398901210750560E-01   -0.8658792091590225E+00   -0.4969855603949176E-06   -0.1113895020709091E-08    0.6320903002399181E-11   -0.6418043180245192E-12    0.8817243324354962E-09
 -0.2749   0.5311    0.5461133226706277E-01    0.9942269241044065E-03   -0.2435868511752038E-05    0.8730765690344866E-01   -0.9316337505927955E+00   -0.5316370747486209E-06   -0.1104241138631668E-08    0.3635555398395773E-11   -0.5476834263884456E-12    0.7144448088691746E-09
 -0.2872   0.5090    0.5173945260906921E-01    0.1162576615826622E-02   -0.4646720748194764E-05    0.1212036557443459E+00   -0.1091589082509269E+01   -0.6212333464992140E-06   -0.1091811047820856E-08    0.5402137071008895E-12   -0.5376012135460684E-12    0.4306106166085399E-09
 -0.3002   0.4858    0.4776699995992072E-01    0.1449335356651740E-02   -0.6835104688735018E-05    0.1462043529216223E+00   -0.1360933536227540E+01   -0.7744397438020301E-06   -0.1073715468966063E-08   -0.2657853104270913E-11   -0.4314743007327593E-12    0.2874350757409161E-10
 -0.3137   0.4615    0.4297813188580275E-01    0.1857795338342588E-02   -0.8854334651560139E-05    0.1636812590516826E+00   -0.1742887542736752E+01   -0.9929977422120942E-06   -0.1046871988402698E-08   -0.5800991631499386E-11   -0.3328171072070063E-12   -0.4723419017027553E-09
 -0.3278   0.4363    0.3765720778144487E-01    0.2386020610889408E-02   -0.1071302454085620E-04    0.1755022730462009E+00   -0.2235665897991352E+01   -0.1275858841891984E-05   -0.1009035958954296E-08   -0.8844015797482285E-11   -0.2636432738789551E-12   -0.1032624079994049E-08
 -0.3423   0.4103    0.3208641895531138E-01    0.3029740971097877E-02   -0.1239343183129496E-04    0.1836184462653989E+00   -0.2835155178642611E+01   -0.1620770703684189E-05   -0.9596085211172056E-09   -0.1174608327270121E-10   -0.1697045282078591E-12   -0.1598360605328808E-08
 -0.3573   0.3836    0.2655332524136184E-01    0.3780837018066590E-02   -0.1385398954915241E-04    0.1897120716068848E+00   -0.3533572509066317E+01   -0.2023413503373932E-05   -0.8997097962482048E-09   -0.1447802294718414E-10   -0.4635181127810029E-13   -0.2118153239177162E-08
 -0.3725   0.3562    0.2135633801062978E-01    0.4624796101728881E-02   -0.1499596764214702E-04    0.1950115632964919E+00   -0.4317171089109523E+01   -0.2476068143953930E-05   -0.8319460537142831E-09   -0.1700689068739880E-10    0.5202782649149640E-13   -0.2554848257756669E-08
 -0.3881   0.3284    0.1680343235917789E-01    0.5539502950992341E-02   -0.1573527105667925E-04    0.2002896390467136E+00   -0.5165176952560005E+01   -0.2966904903574739E-05   -0.7598003823328092E-09   -0.1935653026752249E-10    0.1550148898132875E-12   -0.2891486479937588E-08
 -0.4038   0.3002    0.1320138641769489E-01    0.6495804540371093E-02   -0.1598779576585537E-04    0.2059757664007700E+00   -0.6050347897473104E+01   -0.3480336631208430E-05   -0.6870405078185371E-09   -0.2160042977816801E-10    0.2609301663625274E-12   -0.3128846297068694E-08
 -0.4197   0.2718    0.1083704985661212E-01    0.7459283701694315E-02   -0.1571065112934736E-04    0.2122918313664872E+00   -0.6940654252005690E+01   -0.3997901163538238E-05   -0.6172987850050493E-09   -0.2379221819559518E-10    0.3125555370075972E-12   -0.3277501384874038E-08
 -0.4356   0.2433    0.9954004142658889E-02    0.8392241145632248E-02   -0.1486322937921587E-04    0.2193546863058656E+00   -0.7801116357307037E+01   -0.4499392559825463E-05   -0.5539094842521575E-09   -0.2594760517560246E-10    0.3673450432728487E-12   -0.3351421762505524E-08
 -0.4516   0.2147    0.1072885985503596E-01    0.9255073860070092E-02   -0.1341911135405315E-04    0.2272340403635207E+00   -0.8595099030269674E+01   -0.4963524293577059E-05   -0.4996563440773372E-09   -0.2792518993821602E-10    0.4018313459752676E-12   -0.3365015378321845E-08
 -0.4674   0.1863    0.1324851191708779E-01    0.1000673760259817E-01   -0.1132523451030268E-04    0.2359779298312252E+00   -0.9284731825949818E+01   -0.5368258222324399E-05   -0.4564897349013108E-09   -0.2947891930560331E-10    0.4040795476001335E-12   -0.3329463852189130E-08
 -0.4832   0.1581    0.1748829217623391E-01    0.1060474993464871E-01   -0.8523158845958210E-05    0.2456208546779443E+00   -0.9830949976809562E+01   -0.5690713573049560E-05   -0.4251480001382646E-09   -0.3018524319386984E-10    0.3501712808606783E-12   -0.3254390448965971E-08
 -0.4987   0.1303    0.2329054929386847E-01    0.1100572374806424E-01   -0.4943679434405138E-05    0.2561842662108661E+00   -0.1019399663934608E+02   -0.5907544117703342E-05   -0.4046552190550834E-09   -0.2956479505655807E-10    0.2511255092763065E-12   -0.3147397641123373E-08
 -0.5140   0.1029    0.3034693012173728E-01    0.1116767464537100E-01   -0.5651074563285383E-06    0.2676740313981329E+00   -0.1033560377043082E+02   -0.5996068644895999E-05   -0.3920129130162431E-09   -0.2716038505212737E-10    0.1333421220661712E-12   -0.3014681572086064E-08
 -0.5289   0.0762    0.3819206006220950E-01    0.1105497360507122E-01    0.4551870892560830E-05    0.2800768835046874E+00   -0.1022353387810970E+02   -0.5937046434953301E-05   -0.3823879303477273E-09   -0.2274802568535961E-10   -0.1948441408217150E-13   -0.2860469409948774E-08
 -0.5434   0.0502    0.4622082563561841E-01    0.1064592137705773E-01    0.1019394679375422E-04    0.2933569479662067E+00   -0.9838538985117948E+01   -0.5718635997607068E-05   -0.3697182456019465E-09   -0.1637501245710382E-10   -0.1934702398287413E-12   -0.2689040738343418E-08
 -0.5575   0.0250    0.5374004702706960E-01    0.9941415690144154E-02    0.1598375132922435E-04    0.3074531737392739E+00   -0.9182191035029897E+01   -0.5341213757591102E-05   -0.3480430388336231E-09   -0.8524514427676877E-11   -0.3023276073932379E-12   -0.2503799726577549E-08
 -0.5710   0.0007    0.6005678037250371E-01    0.8971756432295384E-02    0.2139166280228730E-04    0.3222782653353177E+00   -0.8283019947076713E+01   -0.4820916827880333E-05   -0.3132324816190746E-09   -0.9953149415764528E-13   -0.4209410597866281E-12   -0.2308022391261932E-08
 -0.5840  -0.0225    0.6458883755583124E-01    0.7798016481979272E-02    0.2583945905666138E-04    0.3377191935546129E+00   -0.7197574203990734E+01   -0.4190574640893828E-05   -0.2642591562240781E-09    0.7817801961351734E-11   -0.5539319003489140E-12   -0.2103832299343855E-08
 -0.5963  -0.0446    0.6696757825767717E-01    0.6505690061941717E-02    0.2882502529740493E-04    0.3536385501821777E+00   -0.6004552790317355E+01   -0.3496122993046673E-05   -0.2038389942948804E-09    0.1416061712333772E-10   -0.5244693568329239E-12   -0.1893583246800890E-08
 -0.6080  -0.0654    0.6709808540585481E-01    0.5191244248843215E-02    0.3006240188996420E-04    0.3698752107571735E+00   -0.4792424608252984E+01   -0.2789564965123972E-05   -0.1374727415237587E-09    0.1817967998363201E-10   -0.5635214517241138E-12   -0.1680244407151199E-08
 -0.6189  -0.0850    0.6515572348921672E-01    0.3945558941601201E-02    0.2954040895514113E-04    0.3862426026592269E+00   -0.3644413256116405E+01   -0.2119801350172940E-05   -0.7188603184937747E-10    0.1962494056151343E-10   -0.5515032874825465E-12   -0.1466158644145010E-08
 -0.6290  -0.1031    0.6152339683477593E-01    0.2839707398189058E-02    0.2750287538966776E-04    0.4025240047949626E+00   -0.2625509907481926E+01   -0.1525212839954735E-05   -0.1307805252981353E-10    0.1876282462731638E-10   -0.5228040222959862E-12   -0.1255001763969532E-08
 -0.6383  -0.1197    0.5669706536364105E-01    0.1917383600113767E-02    0.2434074429968866E-04    0.4184668553063965E+00   -0.1775711863842623E+01   -0.1029260364051487E-05    0.3498046297067958E-10    0.1621391909623071E-10   -0.4659328478595626E-12   -0.1049448002457543E-08
 -0.6467  -0.1348    0.5119363309192464E-01    0.1194962656809777E-02    0.2046418398389785E-04    0.4337809526883327E+00   -0.1109974431544048E+01   -0.6408716005563955E-06    0.7078516245373478E-10    0.1274395866612821E-10   -0.4585776203214209E-12   -0.8525490747396391E-09
 -0.6542  -0.1483    0.4548600013627604E-01    0.6671369861082380E-03    0.1620220475004541E-04    0.4481464882047242E+00   -0.6234527378045577E+00   -0.3570681876400907E-06    0.9487050728340662E-10    0.9083456209424412E-11   -0.4312522561278342E-12   -0.6678193189418868E-09
 -0.6608  -0.1601    0.3997197848734500E-01    0.3142213309442446E-03    0.1177235478196567E-04    0.4612350160452621E+00   -0.2979201875061943E+00   -0.1674247527355322E-06    0.1092191233287299E-09    0.5813204084770263E-11   -0.4635389294627146E-12   -0.4998248447074527E-09
 -0.6665  -0.1701    0.3496888665911582E-01    0.1078132807858342E-03    0.7356656325362526E-05    0.4727400488360213E+00   -0.1070774761831587E+00   -0.5651837988145790E-07    0.1164227256267303E-09    0.3301452861093068E-11   -0.4693329058724771E-12   -0.3518284266354477E-09
 -0.6711  -0.1784    0.3071716730308396E-01    0.1304193901917404E-04    0.3267072247354374E-05    0.4824074548512230E+00   -0.1831208009355153E-01   -0.5911118506267558E-08    0.1193750862049647E-09    0.1709635905067231E-11   -0.4999368974356599E-12   -0.2269557181078241E-09
 -0.6747  -0.1849    0.2737791567734555E-01   -0.1056949880812929E-04    0.1146961672619079E-06    0.4900539845109104E+00    0.5849383636519641E-02    0.6438828496111607E-08    0.1206267782600905E-09    0.9642980858259875E-12   -0.5298712857371157E-12   -0.1284695076014808E-09
 -0.6773  -0.1896    0.2502074825020629E-01   -0.5173704198034160E-05   -0.1214068138528713E-05    0.4955673218407744E+00    0.4017001267936094E-02    0.2850120744096688E-08    0.1224634256849488E-09    0.7330273540939736E-12   -0.5996115062800733E-12   -0.5719891444169733E-10
 -0.6789  -0.1924    0.2362663145935192E-01   -0.2249336716364598E-06   -0.2248471546701741E-06    0.4988903905808396E+00    0.7452194732229463E-03    0.1915607020829249E-09    0.1250541381602258E-09    0.4060651012487149E-12   -0.4069826073371807E-12   -0.1464819487494856E-10
 -0.6794  -0.1933    0.2316319999334342E-01    0.0000000000000000E+00    0.0000000000000000E+00    0.5000000000000000E+00   -0.4028115501831825E-04    0.0000000000000000E+00    0.0000000000000000E+00    0.0000000000000000E+00    0.0000000000000000E+00    0.0000000000000000E+00
 -0.1890   0.6782    0.2535100642617477E-01    0.0000000000000000E+00    0.0000000000000000E+00   -0.5000000000000000E+00   -0.4819818999855104E-02    0.0000000000000000E+00    0.0000000000000000E+00    0.0000000000000000E+00    0.0000000000000000E+00    0.0000000000000000E+00
 -0.1896   0.6773    0.2580416810828646E-01    0.2477536493140353E-05   -0.7246006828939935E-05   -0.4949110623962548E+00   -0.9269803729607029E-02   -0.3488851154038194E-08   -0.1134585311986236E-08   -0.8051631193370379E-12   -0.1018165586563757E-11    0.1300810023932564E-10
 -0.1911   0.6745    0.2713069146956611E-01    0.4040280775191321E-04   -0.4040609681875675E-04   -0.4796691113566031E+00   -0.2191568814483764E-01   -0.7780685630658100E-07   -0.1136235060900104E-08   -0.2249659009426197E-11   -0.2585074515559782E-11    0.5148199314769508E-10
 -0.1937   0.6698    0.2925819310011552E-01    0.2024568474709806E-03   -0.9109365724844094E-04   -0.4543681709934577E+00   -0.5293506979165739E-01   -0.4364190764437650E-06   -0.1139400206129348E-08   -0.2363540786698426E-11   -0.3490072814082978E-11    0.1157966569853563E-09
 -0.1973   0.6634    0.3212289330735051E-01    0.5775143978264765E-03   -0.1304983709379346E-03   -0.4192362571551864E+00   -0.1238158612997378E+00   -0.1279905518492713E-05   -0.1142987260394079E-08    0.4542546894192867E-13   -0.4089409366692109E-11    0.2048754013661558E-09
 -0.2020   0.6551    0.3565383306210656E-01    0.1172969131913771E-02   -0.1443101730804185E-03   -0.3747596726293759E+00   -0.2424318704374422E+00   -0.2609279718945056E-05   -0.1145997616247563E-08    0.5138174608010360E-11   -0.4391952079796368E-11    0.3170765733306879E-09
 -0.2076   0.6450    0.3970747807900027E-01    0.1902883362861721E-02   -0.1319876931143426E-03   -0.3218648369167383E+00   -0.3948805599286154E+00   -0.4221949354270684E-05   -0.1147475787999230E-08    0.1228542961806411E-10   -0.4429859257193414E-11    0.4481895132801839E-09
 -0.2142   0.6332    0.4402991553703481E-01    0.2626601575885448E-02   -0.1005314802373121E-03   -0.2621099155170666E+00   -0.5526454918044106E+00   -0.5802990138822088E-05   -0.1146835987286821E-08    0.2018134270809213E-10   -0.4226854977140704E-11    0.5898474278454024E-09
 -0.2217   0.6198    0.4825858874534816E-01    0.3201994006151271E-02   -0.6025625699319027E-04   -0.1977887759188974E+00   -0.6850077825545722E+00   -0.7040265060556273E-05   -0.1143903204797736E-08    0.2724331871206687E-10   -0.3868658865480157E-11    0.7290464343334691E-09