 title="result"
 variables="x","y","P","u","v","t","omega","psi","RES1","RES2","RES3","RES4"
zone,j= 49,i= 49,f=point
 -0.2572   0.6587    0.2509625726851082E-01    0.0000000000000000E+00    0.0000000000000000E+00   -0.5000000000000000E+00    0.0000000000000000E+00    0.0000000000000000E+00    0.0000000000000000E+00    0.0000000000000000E+00    0.0000000000000000E+00    0.0000000000000000E+00
 -0.2576   0.6577    0.2558370436099367E-01    0.0000000000000000E+00    0.0000000000000000E+00   -0.4951593822950749E+00    0.3239913913776541E-03    0.0000000000000000E+00    0.0000000000000000E+00    0.0000000000000000E+00    0.0000000000000000E+00    0.0000000000000000E+00
 -0.2589   0.6548    0.2699732270557252E-01    0.0000000000000000E+00    0.0000000000000000E+00   -0.4806610617882944E+00   -0.4512445785555579E-02    0.0000000000000000E+00    0.0000000000000000E+00    0.0000000000000000E+00    0.0000000000000000E+00    0.0000000000000000E+00
 -0.2610   0.6499    0.2926045478467391E-01    0.0000000000000000E+00    0.0000000000000000E+00   -0.4565927962414891E+00   -0.3644445819953345E-01    0.0000000000000000E+00    0.0000000000000000E+00    0.0000000000000000E+00    0.0000000000000000E+00    0.0000000000000000E+00
 -0.2640   0.6431    0.3231568637147405E-01    0.0000000000000000E+00    0.0000000000000000E+00   -0.4231613987057697E+00   -0.1095720968280003E+00    0.0000000000000000E+00    0.0000000000000000E+00    0.0000000000000000E+00    0.0000000000000000E+00    0.0000000000000000E+00
 -0.2678   0.6344    0.3606222870885653E-01    0.0000000000000000E+00    0.0000000000000000E+00   -0.3807931987317121E+00   -0.2186955023627252E+00    0.0000000000000000E+00    0.0000000000000000E+00    0.0000000000000000E+00    0.0000000000000000E+00    0.0000000000000000E+00
 -0.2725   0.6238    0.4031143918967092E-01    0.0000000000000000E+00    0.0000000000000000E+00   -0.3302785755119125E+00   -0.3451488030480204E+00    0.0000000000000000E+00    0.0000000000000000E+00    0.0000000000000000E+00    0.0000000000000000E+00    0.0000000000000000E+00
 -0.2779   0.6115    0.4477650677694194E-01    0.0000000000000000E+00    0.0000000000000000E+00   -0.2729301052886921E+00   -0.4640967173278738E+00    0.0000000000000000E+00    0.0000000000000000E+00    0.0000000000000000E+00    0.0000000000000000E+00    0.0000000000000000E+00
 -0.2841   0.5973    0.4908171882759748E-01    0.0000000000000000E+00    0.0000000000000000E+00   -0.2106903681726897E+00   -0.5531431159728669E+00    0.0000000000000000E+00    0.0000000000000000E+00    0.0000000000000000E+00    0.0000000000000000E+00    0.0000000000000000E+00
 -0.2910   0.5815    0.5279968478281528E-01    0.0000000000000000E+00    0.0000000000000000E+00   -0.1461131626887434E+00   -0.6011099628969702E+00    0.0000000000000000E+00    0.0000000000000000E+00    0.0000000000000000E+00    0.0000000000000000E+00    0.0000000000000000E+00
 -0.2987   0.5640    0.5551182183249312E-01    0.0000000000000000E+00    0.0000000000000000E+00   -0.8217237727065807E-01   -0.6150946293767519E+00    0.0000000000000000E+00    0.0000000000000000E+00    0.0000000000000000E+00    0.0000000000000000E+00    0.0000000000000000E+00
 -0.3070   0.5450    0.5688563701465010E-01    0.0000000000000000E+00    0.0000000000000000E+00   -0.2191910116284381E-01   -0.6217309631634554E+00    0.0000000000000000E+00    0.0000000000000000E+00    0.0000000000000000E+00    0.0000000000000000E+00    0.0000000000000000E+00
 -0.3160   0.5246    0.5674095193928695E-01    0.0000000000000000E+00    0.0000000000000000E+00    0.3193230967321933E-01   -0.6599069319281210E+00    0.0000000000000000E+00    0.0000000000000000E+00    0.0000000000000000E+00    0.0000000000000000E+00    0.0000000000000000E+00
 -0.3256   0.5027    0.5507575335182482E-01    0.0000000000000000E+00    0.0000000000000000E+00    0.7739300455374953E-01   -0.7676871444005329E+00    0.0000000000000000E+00    0.0000000000000000E+00    0.0000000000000000E+00    0.0000000000000000E+00    0.0000000000000000E+00
 -0.3357   0.4795    0.5203877309370493E-01    0.0000000000000000E+00    0.0000000000000000E+00    0.1134857520101539E+00   -0.9714403326065927E+00    0.0000000000000000E+00    0.0000000000000000E+00    0.0000000000000000E+00    0.0000000000000000E+00    0.0000000000000000E+00
 -0.3464   0.4552    0.4787165517018958E-01    0.0000000000000000E+00    0.0000000000000000E+00    0.1403641478307576E+00   -0.1283665085282961E+01    0.0000000000000000E+00    0.0000000000000000E+00    0.0000000000000000E+00    0.0000000000000000E+00    0.0000000000000000E+00
 -0.3576   0.4297    0.4285621825289627E-01    0.0000000000000000E+00    0.0000000000000000E+00    0.1592074020412428E+00   -0.1708012591134372E+01    0.0000000000000000E+00    0.0000000000000000E+00    0.0000000000000000E+00    0.0000000000000000E+00    0.0000000000000000E+00
 -0.3691   0.4033    0.3728741290205062E-01    0.0000000000000000E+00    0.0000000000000000E+00    0.1718810425967101E+00   -0.2244620716781989E+01    0.0000000000000000E+00    0.0000000000000000E+00    0.0000000000000000E+00    0.0000000000000000E+00    0.0000000000000000E+00
 -0.3811   0.3760    0.3146728027840937E-01    0.0000000000000000E+00    0.0000000000000000E+00    0.1804572257212127E+00   -0.2891168655800221E+01    0.0000000000000000E+00    0.0000000000000000E+00    0.0000000000000000E+00    0.0000000000000000E+00    0.0000000000000000E+00
 -0.3934   0.3479    0.2570792996884500E-01    0.0000000000000000E+00    0.0000000000000000E+00    0.1867730061422329E+00   -0.3640528920500070E+01    0.0000000000000000E+00    0.0000000000000000E+00    0.0000000000000000E+00    0.0000000000000000E+00    0.0000000000000000E+00
 -0.4060   0.3193    0.2033372137744152E-01    0.0000000000000000E+00    0.0000000000000000E+00    0.1921817680942643E+00   -0.4478065720841866E+01    0.0000000000000000E+00    0.0000000000000000E+00    0.0000000000000000E+00    0.0000000000000000E+00    0.0000000000000000E+00
 -0.4188   0.2901    0.1567705224626543E-01    0.0000000000000000E+00    0.0000000000000000E+00    0.1975315361253850E+00   -0.5380579655761255E+01    0.0000000000000000E+00    0.0000000000000000E+00    0.0000000000000000E+00    0.0000000000000000E+00    0.0000000000000000E+00
 -0.4317   0.2605    0.1206416081987495E-01    0.0000000000000000E+00    0.0000000000000000E+00    0.2032872958502208E+00   -0.6317193509752372E+01    0.0000000000000000E+00    0.0000000000000000E+00    0.0000000000000000E+00    0.0000000000000000E+00    0.0000000000000000E+00
 -0.4448   0.2307    0.9792291229723978E-02    0.0000000000000000E+00    0.0000000000000000E+00    0.2096843284229587E+00   -0.7251519022531451E+01    0.0000000000000000E+00    0.0000000000000000E+00    0.0000000000000000E+00    0.0000000000000000E+00    0.0000000000000000E+00
 -0.4579   0.2007    0.9102501794454836E-02    0.0000000000000000E+00    0.0000000000000000E+00    0.2168435874283534E+00   -0.8144036040283160E+01    0.0000000000000000E+00    0.0000000000000000E+00    0.0000000000000000E+00    0.0000000000000000E+00    0.0000000000000000E+00
 -0.4711   0.1708    0.1015301822011830E-01    0.0000000000000000E+00    0.0000000000000000E+00    0.2248357166262657E+00   -0.8953848930423472E+01    0.0000000000000000E+00    0.0000000000000000E+00    0.0000000000000000E+00    0.0000000000000000E+00    0.0000000000000000E+00
 -0.4841   0.1410    0.1299517243250356E-01    0.0000000000000000E+00    0.0000000000000000E+00    0.2337085518031703E+00   -0.9639560509688936E+01    0.0000000000000000E+00    0.0000000000000000E+00    0.0000000000000000E+00    0.0000000000000000E+00    0.0000000000000000E+00
 -0.4971   0.1114    0.1755227626951202E-01    0.0000000000000000E+00    0.0000000000000000E+00    0.2434956459518365E+00   -0.1015977296751364E+02    0.0000000000000000E+00    0.0000000000000000E+00    0.0000000000000000E+00    0.0000000000000000E+00    0.0000000000000000E+00
 -0.5099   0.0822    0.2360190770032064E-01    0.0000000000000000E+00    0.0000000000000000E+00    0.2542167186887933E+00   -0.1047419795767382E+02    0.0000000000000000E+00    0.0000000000000000E+00    0.0000000000000000E+00    0.0000000000000000E+00    0.0000000000000000E+00
 -0.5225   0.0536    0.3076564931827418E-01    0.0000000000000000E+00    0.0000000000000000E+00    0.2658750870862710E+00   -0.1054646798216947E+02    0.0000000000000000E+00    0.0000000000000000E+00    0.0000000000000000E+00    0.0000000000000000E+00    0.0000000000000000E+00
 -0.5348   0.0255    0.3851445767613466E-01    0.0000000000000000E+00    0.0000000000000000E+00    0.2784542206785485E+00   -0.1034922711687762E+02    0.0000000000000000E+00    0.0000000000000000E+00    0.0000000000000000E+00    0.0000000000000000E+00    0.0000000000000000E+00
 -0.5467  -0.0018    0.4620036504115946E-01    0.0000000000000000E+00    0.0000000000000000E+00    0.2919145412659722E+00   -0.9871104766697332E+01    0.0000000000000000E+00    0.0000000000000000E+00    0.0000000000000000E+00    0.0000000000000000E+00    0.0000000000000000E+00
 -0.5583  -0.0282    0.5312171636577589E-01    0.0000000000000000E+00    0.0000000000000000E+00    0.3061912605160173E+00   -0.9123798147559819E+01    0.0000000000000000E+00    0.0000000000000000E+00    0.0000000000000000E+00    0.0000000000000000E+00    0.0000000000000000E+00
 -0.5695  -0.0537    0.5861846789883252E-01    0.0000000000000000E+00    0.0000000000000000E+00    0.3211937350551932E+00   -0.8146442091034926E+01    0.0000000000000000E+00    0.0000000000000000E+00    0.0000000000000000E+00    0.0000000000000000E+00    0.0000000000000000E+00
 -0.5801  -0.0780    0.6217855671572674E-01    0.0000000000000000E+00    0.0000000000000000E+00    0.3368062400311380E+00   -0.7004376024217663E+01    0.0000000000000000E+00    0.0000000000000000E+00    0.0000000000000000E+00    0.0000000000000000E+00    0.0000000000000000E+00
 -0.5903  -0.1012    0.6352463602391011E-01    0.0000000000000000E+00    0.0000000000000000E+00    0.3528892576086310E+00   -0.5781077767445310E+01    0.0000000000000000E+00    0.0000000000000000E+00    0.0000000000000000E+00    0.0000000000000000E+00    0.0000000000000000E+00
 -0.5999  -0.1231    0.6265182442500408E-01    0.0000000000000000E+00    0.0000000000000000E+00    0.3692797025387211E+00   -0.4564790256912826E+01    0.0000000000000000E+00    0.0000000000000000E+00    0.0000000000000000E+00    0.0000000000000000E+00    0.0000000000000000E+00
 -0.6089  -0.1435    0.5980416213041349E-01    0.0000000000000000E+00    0.0000000000000000E+00    0.3857885743751293E+00   -0.3433964176110687E+01    0.0000000000000000E+00    0.0000000000000000E+00    0.0000000000000000E+00    0.0000000000000000E+00    0.0000000000000000E+00
 -0.6172  -0.1626    0.5540177934633772E-01    0.0000000000000000E+00    0.0000000000000000E+00    0.4021958848490169E+00   -0.2446168094123249E+01    0.0000000000000000E+00    0.0000000000000000E+00    0.0000000000000000E+00    0.0000000000000000E+00    0.0000000000000000E+00
 -0.6248  -0.1800    0.4994784934203634E-01    0.0000000000000000E+00    0.0000000000000000E+00    0.4182452839066978E+00   -0.1633493709555509E+01    0.0000000000000000E+00    0.0000000000000000E+00    0.0000000000000000E+00    0.0000000000000000E+00    0.0000000000000000E+00
 -0.6318  -0.1958    0.4394598537878749E-01    0.0000000000000000E+00    0.0000000000000000E+00    0.4336433871546517E+00   -0.1004416431110225E+01    0.0000000000000000E+00    0.0000000000000000E+00    0.0000000000000000E+00    0.0000000000000000E+00    0.0000000000000000E+00
 -0.6380  -0.2100    0.3784649223581162E-01    0.0000000000000000E+00    0.0000000000000000E+00    0.4480692795463954E+00   -0.5497877158437170E+00    0.0000000000000000E+00    0.0000000000000000E+00    0.0000000000000000E+00    0.0000000000000000E+00    0.0000000000000000E+00
 -0.6434  -0.2223    0.3202407528073193E-01    0.0000000000000000E+00    0.0000000000000000E+00    0.4611964233444508E+00   -0.2494573442654383E+00    0.0000000000000000E+00    0.0000000000000000E+00    0.0000000000000000E+00    0.0000000000000000E+00    0.0000000000000000E+00
 -0.6480  -0.2329    0.2677683262714520E-01    0.0000000000000000E+00    0.0000000000000000E+00    0.4727229551777725E+00   -0.7697287260897163E-01    0.0000000000000000E+00    0.0000000000000000E+00    0.0000000000000000E+00    0.0000000000000000E+00    0.0000000000000000E+00
 -0.6518  -0.2416    0.2233158127691176E-01    0.0000000000000000E+00    0.0000000000000000E+00    0.4824005993668641E+00   -0.1063287993735313E-02    0.0000000000000000E+00    0.0000000000000000E+00    0.0000000000000000E+00    0.0000000000000000E+00    0.0000000000000000E+00
 -0.6548  -0.2484    0.1884203746600359E-01    0.0000000000000000E+00    0.0000000000000000E+00    0.4900513559346960E+00    0.1390354490577311E-01    0.0000000000000000E+00    0.0000000000000000E+00    0.0000000000000000E+00    0.0000000000000000E+00    0.0000000000000000E+00
 -0.6570  -0.2533    0.1637812207159066E-01    0.0000000000000000E+00    0.0000000000000000E+00    0.4955663694143386E+00    0.5311829994515019E-02    0.0000000000000000E+00    0.0000000000000000E+00    0.0000000000000000E+00    0.0000000000000000E+00    0.0000000000000000E+00
 -0.6582  -0.2562    0.1491926122864827E-01    0.0000000000000000E+00    0.0000000000000000E+00    0.4988901650690883E+00   -0.5987168284694837E-04    0.0000000000000000E+00    0.0000000000000000E+00    0.0000000000000000E+00    0.0000000000000000E+00    0.0000000000000000E+00
 -0.6587  -0.2572    0.1443291062547602E-01    0.0000000000000000E+00    0.0000000000000000E+00    0.5000000000000000E+00    0.0000000000000000E+00    0.0000000000000000E+00    0.0000000000000000E+00    0.0000000000000000E+00    0.0000000000000000E+00    0.0000000000000000E+00
 -0.2562   0.6582    0.2531157559106909E-01    0.0000000000000000E+00    0.0000000000000000E+00   -0.5000000000000000E+00    0.3241823464096652E-03    0.0000000000000000E+00    0.0000000000000000E+00    0.0000000000000000E+00    0.0000000000000000E+00    0.0000000000000000E+00
 -0.2566   0.6573    0.2579798386029788E-01    0.4087829361816271E-07   -0.4075372189690229E-07   -0.4951592421946821E+00   -0.6433291359283198E-03   -0.1530919556532853E-10   -0.3843295784703923E-09   -0.7128314865462171E-12   -0.6918723406690308E-12    0.1190385452969761E-10
 -0.2579   0.6543    0.2721313351703024E-01    0.6133082594261610E-05   -0.1976886769743182E-05   -0.4806604939717732E+00   -0.7360798038555343E-02   -0.3028448803163860E-08   -0.3892499920478409E-09   -0.1312099734418481E-11   -0.1039819272352638E-11    0.4860188683800115E-10
 -0.2601   0.6495    0.2947857451672834E-01    0.3890421573527653E-04   -0.4529757941184396E-05   -0.4565914711120423E+00   -0.3644594347001234E-01   -0.2089354539993622E-07   -0.3941104734228595E-09   -0.1225184016739878E-11   -0.1012516459564239E-11    0.1091504560346568E-09
 -0.2630   0.6426    0.3252770939268137E-01    0.1137347358860736E-03   -0.6124515316955400E-05   -0.4231589168836999E+00   -0.1030923145118120E+00   -0.6149035618286081E-07   -0.3978094121476206E-09   -0.6983580380648391E-12   -0.1042457786759599E-11    0.1941052318876757E-09
 -0.2669   0.6339    0.3625779232082779E-01    0.2267038705629647E-03   -0.6515878971966350E-05   -0.3807891247136292E+00   -0.2049488227225021E+00   -0.1226689142671367E-06   -0.4005219142455552E-09    0.1632929902406488E-12   -0.1050326492446629E-11    0.3035075142598931E-09
 -0.2715   0.6234    0.4048165030199134E-01    0.3589159898203521E-03   -0.5728381933956867E-05   -0.3302725299491709E+00   -0.3254795437525343E+00   -0.1939774524788022E-06   -0.4019745768885086E-09    0.1148796335836977E-11   -0.1032951502111246E-11    0.4374435744192162E-09
 -0.2769   0.6110    0.4491467667538744E-01    0.4845739372299526E-03   -0.4226006075660527E-05   -0.2729218883526707E+00   -0.4412692322417958E+00   -0.2615516645027034E-06   -0.4025752856073872E-09    0.1998887166898555E-11   -0.1014136691290801E-11    0.5946752743013484E-09
 -0.2831   0.5969    0.4918445390902224E-01    0.5801151034942911E-03   -0.2439192424173755E-05   -0.2106800666870158E+00   -0.5307169179535730E+00   -0.3126448795774140E-06   -0.4030323696307958E-09    0.2480640692859026E-11   -0.1006547276083403E-11    0.7733035184420700E-09
 -0.2900   0.5811    0.5286730579235610E-01    0.6335998034426173E-03   -0.9470923990417075E-06   -0.1461011878502797E+00   -0.5826717471740438E+00   -0.3409036663850321E-06   -0.4045551361357008E-09    0.2432443135802487E-11   -0.9517881274789808E-12    0.9691285690616169E-09
 -0.2977   0.5636    0.5554833276566132E-01    0.6522097786012519E-03   -0.2002535045005180E-06   -0.8215940771462871E-01   -0.6034628028901422E+00   -0.3502149035110026E-06   -0.4085631484279824E-09    0.1761209234008021E-11   -0.9548345187432306E-12    0.1173508318297323E-08
 -0.3060   0.5446    0.5689764317413618E-01    0.6636745499189955E-03   -0.4879049592967295E-06   -0.2190595760991297E-01   -0.6182462509960623E+00   -0.3555816463442165E-06   -0.4167384774940441E-09    0.4612924625613246E-12   -0.9307966723770544E-12    0.1370950783452507E-08
 -0.3150   0.5241    0.5673593466648629E-01    0.7087322095994852E-03   -0.1725777936014851E-05    0.3194479984238431E-01   -0.6642456707664104E+00   -0.3789532885109503E-06   -0.4305085355045535E-09   -0.1345371730687717E-11   -0.8598313033791882E-12    0.1536468188789719E-08
 -0.3246   0.5023    0.5506040249024965E-01    0.8274651864943316E-03   -0.3596976359828679E-05    0.7740411388160175E-01   -0.7782735722345602E+00   -0.4419130678193576E-06   -0.4506172969487299E-09   -0.3428164002672318E-11   -0.8411119023499225E-12    0.1635357044227348E-08
 -0.3347   0.4791    0.5201825967485477E-01    0.1047836458957850E-02   -0.5691227761106919E-05    0.1134949357586907E+00   -0.9862090535597849E+00   -0.5594708603685274E-06   -0.4764138215873626E-09   -0.5504735556272067E-11   -0.8091999292858532E-12    0.1629122919899473E-08
 -0.3454   0.4547    0.4784979828142921E-01    0.1383251284993056E-02   -0.7761685706630119E-05    0.1403711190951848E+00   -0.1300598646874146E+01   -0.7388003275782720E-06   -0.5058869122220866E-09   -0.7320713479863628E-11   -0.7408795799079826E-12    0.1487117241849578E-08
 -0.3566   0.4293    0.4283590605801348E-01    0.1837681066925041E-02   -0.9711933544626642E-05    0.1592121806073708E+00   -0.1725214635187679E+01   -0.9820168973047782E-06   -0.5360372701268545E-09   -0.8675761498100343E-11   -0.6607978053629893E-12    0.1201032821807058E-08
 -0.3682   0.4029    0.3727069322502043E-01    0.2411202189831018E-02   -0.1154543590967570E-04    0.1718839316760555E+00   -0.2260061171104738E+01   -0.1289171348419698E-05   -0.5637061650798358E-09   -0.9367562281425990E-11   -0.5556249904614674E-12    0.7918957087293954E-09
 -0.3801   0.3756    0.3145516829416873E-01    0.3101120150465134E-02   -0.1322541933412449E-04    0.1804587003771735E+00   -0.2902424272279529E+01   -0.1658863663180092E-05   -0.5861870884527054E-09   -0.9194620759211958E-11   -0.4577657697346638E-12    0.3061811290616667E-09
 -0.3924   0.3475    0.2570024477942124E-01    0.3899537757574709E-02   -0.1467761340176095E-04    0.1867735603501364E+00   -0.3644677108819002E+01   -0.2086907635411538E-05   -0.6016325770907827E-09   -0.7969944149088803E-11   -0.3582134588953068E-12   -0.1994625172495323E-09
 -0.4050   0.3188    0.2032913114934789E-01    0.4790556010963111E-02   -0.1577994298473446E-04    0.1921817959955185E+00   -0.4471750860284662E+01   -0.2564842561918419E-05   -0.6089248306972994E-09   -0.5613762926737209E-11   -0.2784578123637971E-12   -0.6758810247044743E-09
 -0.4178   0.2897    0.1567330322614619E-01    0.5749213305013437E-02   -0.1642526974795710E-04    0.1975312897994942E+00   -0.5360212638809998E+01   -0.3079319891948266E-05   -0.6073588368349370E-09   -0.2218329686609621E-11   -0.1502270530195915E-12   -0.1091155857509130E-08
 -0.4307   0.2601    0.1205836907525401E-01    0.6742478522117314E-02   -0.1652067545583647E-04    0.2032869065025152E+00   -0.6279228289639697E+01   -0.3612666243708473E-05   -0.5963335797387614E-09    0.1972658147941786E-11   -0.5760669719023781E-13   -0.1431639589429684E-08
 -0.4438   0.2303    0.9781212070437102E-02    0.7731583216827050E-02   -0.1601774856555302E-04    0.2096838510785853E+00   -0.7192761126127614E+01   -0.4144083945556756E-05   -0.5752452889029591E-09    0.6559447429665966E-11    0.2746414207166481E-13   -0.1696934170437869E-08
 -0.4569   0.2003    0.9082691383652320E-02    0.8674561738821076E-02   -0.1488195115218894E-04    0.2168430389983576E+00   -0.8061927231982390E+01   -0.4651063425562301E-05   -0.5436882888343320E-09    0.1116606807016751E-10    0.9044154314352681E-13   -0.1892423111445052E-08
 -0.4701   0.1704    0.1012089491385938E-01    0.9528115795085442E-02   -0.1309460961110185E-04    0.2248350984085011E+00   -0.8846735376894641E+01   -0.5110326441327590E-05   -0.5016714092753727E-09    0.1545780170530975E-10    0.1409913852334910E-12   -0.2026533943259856E-08
 -0.4832   0.1405    0.1294698160056206E-01    0.1024854713612877E-01   -0.1062102285841760E-04    0.2337078600203143E+00   -0.9506940392535888E+01   -0.5498389791944051E-05   -0.4497039858553098E-09    0.1916916625432918E-10    0.1467714838554457E-12   -0.2107057006303648E-08
 -0.4961   0.1110    0.1748407067032991E-01    0.1079230101788973E-01   -0.7427089307926585E-05    0.2434948761007944E+00   -0.1000257525271350E+02   -0.5791784354280346E-05   -0.3887081993086960E-09    0.2226330231280826E-10    0.1434616314632819E-12   -0.2141170662647851E-08
 -0.5089   0.0818    0.2350960491524494E-01    0.1111716301897922E-01   -0.3483860925675549E-05    0.2542158673935405E+00   -0.1029505702333657E+02   -0.5967772041743679E-05   -0.3198945344728976E-09    0.2475109006638831E-10    0.8568146192544646E-13   -0.2134846644949451E-08
 -0.5215   0.0531    0.3064530506062346E-01    0.1118524129411235E-01    0.1179497317340651E-05    0.2658741530076034E+00   -0.1034996991426185E+02   -0.6005861404793919E-05   -0.2445061314873542E-09    0.2671696197609208E-10   -0.1275715644233344E-13   -0.2094047948930644E-08
 -0.5338   0.0251    0.3836275246253495E-01    0.1096832518408905E-01    0.6440221659893089E-05    0.2784532048610632E+00   -0.1014195985329315E+02   -0.5890786571758298E-05   -0.1637543781130013E-09    0.2823197231549557E-10   -0.1067861077341803E-12   -0.2023406987100573E-08
 -0.5457  -0.0022    0.4601531868922201E-01    0.1045517085490522E-01    0.1202962115489295E-04    0.2919134468376871E+00   -0.9661401013933986E+01   -0.5616335008316291E-05   -0.7898670259520735E-10    0.2932720732928829E-10   -0.2391420395042587E-12   -0.1927137787890998E-08
 -0.5573  -0.0286    0.5290340527274864E-01    0.9658844711505554E-02    0.1753667931897958E-04    0.3061900916084717E+00   -0.8920999032029602E+01   -0.5189435942455633E-05    0.8249567695628457E-11    0.2990052649920472E-10   -0.3359257316759567E-12   -0.1809799927976474E-08
 -0.5685  -0.0541    0.5836955600314251E-01    0.8621171591909060E-02    0.2244314199013513E-04    0.3211924950600054E+00   -0.7959768551451220E+01   -0.4632454248543848E-05    0.9576615889184126E-10    0.2980443669642341E-10   -0.3919919944195271E-12   -0.1675810781809339E-08
 -0.5792  -0.0785    0.6190429397512033E-01    0.7411311652565357E-02    0.2623241903555933E-04    0.3368049297964222E+00   -0.6841564221707819E+01   -0.3982589771926619E-05    0.1808350968968142E-09    0.2891031858354154E-10   -0.4740097203637106E-12   -0.1529082358994738E-08
 -0.5893  -0.1016    0.6323228918726874E-01    0.6117222523107829E-02    0.2850650968309298E-04    0.3528878747268892E+00   -0.5647245294139180E+01   -0.3287129613903323E-05    0.2603585472216174E-09    0.2712746693944723E-10   -0.5022648963404208E-12   -0.1373724098016615E-08
 -0.5989  -0.1235    0.6234955537776940E-01    0.4831647991503299E-02    0.2909525017343073E-04    0.3692782431565881E+00   -0.4461816119216500E+01   -0.2596074852820163E-05    0.3313898391810177E-09    0.2451178149343036E-10   -0.4963252031586762E-12   -0.1213928943477605E-08
 -0.6079  -0.1440    0.5949981324461130E-01    0.3636923853828506E-02    0.2808178811527138E-04    0.3857870385246167E+00   -0.3360664230759254E+01   -0.1953732236531373E-05    0.3917119129059898E-09    0.2121247622000055E-10   -0.5358768984109474E-12   -0.1053781052001712E-08
 -0.6162  -0.1630    0.5510183593473564E-01    0.2593441237713082E-02    0.2575820956871411E-04    0.4021942848743282E+00   -0.2399020097822429E+01   -0.1392715643513551E-05    0.4401985859159296E-09    0.1750881384321445E-10   -0.4765215999569250E-12   -0.8962285722585728E-09
 -0.6239  -0.1804    0.4965701370742733E-01    0.1734872111223398E-02    0.2251360939579605E-04    0.4182436533613162E+00   -0.1607725549493841E+01   -0.9310908354181960E-06    0.4768722638992529E-09    0.1370656366184164E-10   -0.4948125242876245E-12   -0.7442866930412739E-09
 -0.6308  -0.1963    0.4366721745152492E-01    0.1070122056994591E-02    0.1872268666251390E-04    0.4336417855887318E+00   -0.9949091587877152E+00   -0.5737490973053265E-06    0.5027894003917233E-09    0.1009632655257775E-10   -0.4652112028935562E-12   -0.6010013545859616E-09
 -0.6370  -0.2104    0.3758154295002417E-01    0.5895464512025382E-03    0.1466518763298627E-04    0.4480677884595353E+00   -0.5517460356289200E+00   -0.3153879477810711E-06    0.5196278407559873E-09    0.6917680404200377E-11   -0.4708317069557211E-12   -0.4684868014359633E-09
 -0.6424  -0.2228    0.3177390268140037E-01    0.2718300044666410E-03    0.1052000726633666E-04    0.4611951312925556E+00   -0.2585103536007258E+00   -0.1446921431144111E-06    0.5294518053144959E-09    0.4351956295334247E-11   -0.4741623760295965E-12   -0.3492121140868942E-09
 -0.6470  -0.2333    0.2654179619348192E-01    0.8881397978287956E-04    0.6439749841200512E-05    0.4727219350687571E+00   -0.8912391902577670E-01   -0.4638559685913067E-07    0.5343644346456067E-09    0.2501807788712895E-11   -0.4890601812412854E-12   -0.2451859427293757E-09
 -0.6509  -0.2420    0.2211066946145764E-01    0.7124511763197864E-05    0.2717396453516875E-05    0.4823998860263842E+00   -0.1238645641703068E-01   -0.2810331600330933E-08    0.5365172438265287E-09    0.1382848696662720E-11   -0.5149266429915755E-12   -0.1582811061037748E-09
 -0.6538  -0.2488    0.1863140017636429E-01   -0.1120343219169323E-04   -0.8933090254875634E-07    0.4900509340075094E+00    0.6822364408836190E-02    0.6707755677509319E-08    0.5377094617190669E-09    0.8749823782183697E-12   -0.5271627318698124E-12   -0.8951487988351214E-10
 -0.6560  -0.2537    0.1616914153258738E-01   -0.4918130262226727E-05   -0.1182981077181778E-05    0.4955661780725887E+00    0.3941214837967678E-02    0.2691757508729179E-08    0.5396079546735044E-09    0.7164594438557881E-12   -0.5731487333349161E-12   -0.3981461536330111E-10
 -0.6573  -0.2566    0.1470792565130376E-01   -0.1998679707172130E-06   -0.1998979943807031E-06    0.4988901170138908E+00    0.6985483326518861E-03    0.1702820892259420E-09    0.5421570319422142E-09    0.3716567526824976E-12   -0.3892459271570559E-12   -0.1019405409695071E-10
 -0.6577  -0.2576    0.1422133642142281E-01    0.0000000000000000E+00    0.0000000000000000E+00    0.5000000000000000E+00   -0.5953907367820519E-04    0.0000000000000000E+00    0.0000000000000000E+00    0.0000000000000000E+00    0.0000000000000000E+00    0.0000000000000000E+00
 -0.2533   0.6570    0.2597485016148180E-01    0.0000000000000000E+00    0.0000000000000000E+00   -0.5000000000000000E+00   -0.4509001226631417E-02    0.0000000000000000E+00    0.0000000000000000E+00    0.0000000000000000E+00    0.0000000000000000E+00    0.0000000000000000E+00
 -0.2537   0.6560    0.2645349854191247E-01    0.1975523748138067E-05   -0.6130710040537899E-05   -0.4951571682303688E+00   -0.7359485486702298E-02   -0.3026925016015704E-08   -0.3888283688080474E-09   -0.1015349452735889E-11   -0.1354726660712791E-11    0.1206152593167392E-10
 -0.2550   0.6530    0.2785929020272349E-01    0.3090115309382747E-04   -0.3090539572120411E-04   -0.4806521205295898E+00   -0.1570748871764140E-01   -0.6151069275299255E-07   -0.3907995194812885E-09   -0.2959537237674781E-11   -0.3326835334993561E-11    0.4849080772334480E-10
 -0.2571   0.6482    0.3011959127855977E-01    0.1493584673736378E-03   -0.6587788859321606E-04   -0.4565721031928891E+00   -0.3730044387681420E-01   -0.3262114620729472E-06   -0.3942328651029836E-09   -0.3599741164872494E-11   -0.4227989486293993E-11    0.1092353100334842E-09
 -0.2601   0.6414    0.3314881776889440E-01    0.4142434892557844E-03   -0.9106454913610132E-04   -0.4231229867969748E+00   -0.8679426624607089E-01   -0.9236414378571227E-06   -0.3976548881845510E-09   -0.2284230096738504E-11   -0.4617351639923939E-11    0.1939661556371597E-09
 -0.2639   0.6327    0.3683286465270024E-01    0.8239793723062427E-03   -0.9822048594985709E-04   -0.3807304843616656E+00   -0.1684173214336676E+00   -0.1838602481918279E-05   -0.4003387621409615E-09    0.4589488511452799E-12   -0.4698939154446080E-11    0.3033555108500341E-09
 -0.2685   0.6221    0.4098518630162532E-01    0.1316762858009645E-02   -0.8823823096047467E-04   -0.3301856428604844E+00   -0.2719420356570336E+00   -0.2925741462794961E-05   -0.4020544175364904E-09    0.3795623537694581E-11   -0.4600281960920327E-11    0.4371523004698119E-09
 -0.2740   0.6097    0.4532678160408515E-01    0.1799318796640254E-02   -0.6647100766792385E-04   -0.2728035817120004E+00   -0.3784039855905057E+00   -0.3976271334176711E-05   -0.4030269763755090E-09    0.6700251464764051E-11   -0.4371458056651178E-11    0.5942320038809790E-09
 -0.2802   0.5956    0.4949434403481037E-01    0.2182857691083702E-02   -0.4017996319458509E-04   -0.2105311690593537E+00   -0.4686473426760703E+00   -0.4795041561983105E-05   -0.4039652570786423E-09    0.8269634976798557E-11   -0.4084017846128773E-11    0.7729498915920452E-09