 title="result"
 variables="x","y","P","u","v","t","omega","psi","RES1","RES2","RES3","RES4"
zone,j= 49,i= 49,f=point
 -0.2534   0.6601    0.2492261133270496E-01    0.0000000000000000E+00    0.0000000000000000E+00   -0.5000000000000000E+00    0.0000000000000000E+00    0.0000000000000000E+00    0.0000000000000000E+00    0.0000000000000000E+00    0.0000000000000000E+00    0.0000000000000000E+00
 -0.2538   0.6592    0.2540885372797910E-01    0.0000000000000000E+00    0.0000000000000000E+00   -0.4951388888713738E+00    0.3347704657009588E-03    0.0000000000000000E+00    0.0000000000000000E+00    0.0000000000000000E+00    0.0000000000000000E+00    0.0000000000000000E+00
 -0.2551   0.6562    0.2681814879253100E-01    0.0000000000000000E+00    0.0000000000000000E+00   -0.4805792068312881E+00   -0.4501826293933690E-02    0.0000000000000000E+00    0.0000000000000000E+00    0.0000000000000000E+00    0.0000000000000000E+00    0.0000000000000000E+00
 -0.2573   0.6514    0.2907324705565120E-01    0.0000000000000000E+00    0.0000000000000000E+00   -0.4564092682960146E+00   -0.3694719273224269E-01    0.0000000000000000E+00    0.0000000000000000E+00    0.0000000000000000E+00    0.0000000000000000E+00    0.0000000000000000E+00
 -0.2603   0.6446    0.3211830396588866E-01    0.0000000000000000E+00    0.0000000000000000E+00   -0.4228376127033427E+00   -0.1116958980597005E+00    0.0000000000000000E+00    0.0000000000000000E+00    0.0000000000000000E+00    0.0000000000000000E+00    0.0000000000000000E+00
 -0.2642   0.6359    0.3585548662880009E-01    0.0000000000000000E+00    0.0000000000000000E+00   -0.3802950928252154E+00   -0.2237056568856723E+00    0.0000000000000000E+00    0.0000000000000000E+00    0.0000000000000000E+00    0.0000000000000000E+00    0.0000000000000000E+00
 -0.2689   0.6254    0.4009880608152297E-01    0.0000000000000000E+00    0.0000000000000000E+00   -0.3295820394135512E+00   -0.3539756540098024E+00    0.0000000000000000E+00    0.0000000000000000E+00    0.0000000000000000E+00    0.0000000000000000E+00    0.0000000000000000E+00
 -0.2744   0.6130    0.4456286193151782E-01    0.0000000000000000E+00    0.0000000000000000E+00   -0.2720290763908185E+00   -0.4769859897141916E+00    0.0000000000000000E+00    0.0000000000000000E+00    0.0000000000000000E+00    0.0000000000000000E+00    0.0000000000000000E+00
 -0.2807   0.5989    0.4887169842691405E-01    0.0000000000000000E+00    0.0000000000000000E+00   -0.2096054209361162E+00   -0.5695399585572294E+00    0.0000000000000000E+00    0.0000000000000000E+00    0.0000000000000000E+00    0.0000000000000000E+00    0.0000000000000000E+00
 -0.2877   0.5832    0.5259637161324516E-01    0.0000000000000000E+00    0.0000000000000000E+00   -0.1448961435713037E+00   -0.6197884233689840E+00    0.0000000000000000E+00    0.0000000000000000E+00    0.0000000000000000E+00    0.0000000000000000E+00    0.0000000000000000E+00
 -0.2954   0.5658    0.5531622192355224E-01    0.0000000000000000E+00    0.0000000000000000E+00   -0.8090242594405013E-01   -0.6344777720615420E+00    0.0000000000000000E+00    0.0000000000000000E+00    0.0000000000000000E+00    0.0000000000000000E+00    0.0000000000000000E+00
 -0.3039   0.5468    0.5669720084125976E-01    0.0000000000000000E+00    0.0000000000000000E+00   -0.2068852652824356E-01   -0.6402888927488213E+00    0.0000000000000000E+00    0.0000000000000000E+00    0.0000000000000000E+00    0.0000000000000000E+00    0.0000000000000000E+00
 -0.3130   0.5264    0.5655890472971722E-01    0.0000000000000000E+00    0.0000000000000000E+00    0.3303866920537093E-01   -0.6764777442337968E+00    0.0000000000000000E+00    0.0000000000000000E+00    0.0000000000000000E+00    0.0000000000000000E+00    0.0000000000000000E+00
 -0.3227   0.5045    0.5490060953193864E-01    0.0000000000000000E+00    0.0000000000000000E+00    0.7831738120594878E-01   -0.7815907279586893E+00    0.0000000000000000E+00    0.0000000000000000E+00    0.0000000000000000E+00    0.0000000000000000E+00    0.0000000000000000E+00
 -0.3330   0.4814    0.5187320652495195E-01    0.0000000000000000E+00    0.0000000000000000E+00    0.1142083289851692E+00   -0.9823579157764541E+00    0.0000000000000000E+00    0.0000000000000000E+00    0.0000000000000000E+00    0.0000000000000000E+00    0.0000000000000000E+00
 -0.3438   0.4571    0.4772029357574400E-01    0.0000000000000000E+00    0.0000000000000000E+00    0.1409013399172268E+00   -0.1291387249065854E+01    0.0000000000000000E+00    0.0000000000000000E+00    0.0000000000000000E+00    0.0000000000000000E+00    0.0000000000000000E+00
 -0.3551   0.4318    0.4272455757905429E-01    0.0000000000000000E+00    0.0000000000000000E+00    0.1595993949803317E+00   -0.1712210286298971E+01    0.0000000000000000E+00    0.0000000000000000E+00    0.0000000000000000E+00    0.0000000000000000E+00    0.0000000000000000E+00
 -0.3668   0.4054    0.3718046930876986E-01    0.0000000000000000E+00    0.0000000000000000E+00    0.1721750873128071E+00   -0.2244742802177103E+01    0.0000000000000000E+00    0.0000000000000000E+00    0.0000000000000000E+00    0.0000000000000000E+00    0.0000000000000000E+00
 -0.3789   0.3782    0.3138845850252957E-01    0.0000000000000000E+00    0.0000000000000000E+00    0.1806940578341567E+00   -0.2886475884332824E+01    0.0000000000000000E+00    0.0000000000000000E+00    0.0000000000000000E+00    0.0000000000000000E+00    0.0000000000000000E+00
 -0.3914   0.3502    0.2565824202219838E-01    0.0000000000000000E+00    0.0000000000000000E+00    0.1869805396221747E+00   -0.3630220583245262E+01    0.0000000000000000E+00    0.0000000000000000E+00    0.0000000000000000E+00    0.0000000000000000E+00    0.0000000000000000E+00
 -0.4041   0.3216    0.2031127479281737E-01    0.0000000000000000E+00    0.0000000000000000E+00    0.1923755133296000E+00   -0.4461448968477551E+01    0.0000000000000000E+00    0.0000000000000000E+00    0.0000000000000000E+00    0.0000000000000000E+00    0.0000000000000000E+00
 -0.4171   0.2925    0.1567679217871939E-01    0.0000000000000000E+00    0.0000000000000000E+00    0.1977183642855911E+00   -0.5357242203032174E+01    0.0000000000000000E+00    0.0000000000000000E+00    0.0000000000000000E+00    0.0000000000000000E+00    0.0000000000000000E+00
 -0.4302   0.2630    0.1207795459963290E-01    0.0000000000000000E+00    0.0000000000000000E+00    0.2034693466288397E+00   -0.6287146629618300E+01    0.0000000000000000E+00    0.0000000000000000E+00    0.0000000000000000E+00    0.0000000000000000E+00    0.0000000000000000E+00
 -0.4435   0.2332    0.9809474708882606E-02    0.0000000000000000E+00    0.0000000000000000E+00    0.2098616111580317E+00   -0.7215289014966312E+01    0.0000000000000000E+00    0.0000000000000000E+00    0.0000000000000000E+00    0.0000000000000000E+00    0.0000000000000000E+00
 -0.4568   0.2034    0.9110921870155051E-02    0.0000000000000000E+00    0.0000000000000000E+00    0.2170152885822000E+00   -0.8102697251798315E+01    0.0000000000000000E+00    0.0000000000000000E+00    0.0000000000000000E+00    0.0000000000000000E+00    0.0000000000000000E+00
 -0.4701   0.1735    0.1014051339112166E-01    0.0000000000000000E+00    0.0000000000000000E+00    0.2250007389618631E+00   -0.8909003964135488E+01    0.0000000000000000E+00    0.0000000000000000E+00    0.0000000000000000E+00    0.0000000000000000E+00    0.0000000000000000E+00
 -0.4833   0.1437    0.1295134904776748E-01    0.0000000000000000E+00    0.0000000000000000E+00    0.2338657225303925E+00   -0.9593273730249773E+01    0.0000000000000000E+00    0.0000000000000000E+00    0.0000000000000000E+00    0.0000000000000000E+00    0.0000000000000000E+00
 -0.4964   0.1143    0.1747038550304141E-01    0.0000000000000000E+00    0.0000000000000000E+00    0.2436438167473245E+00   -0.1011445595271535E+02    0.0000000000000000E+00    0.0000000000000000E+00    0.0000000000000000E+00    0.0000000000000000E+00    0.0000000000000000E+00
 -0.5094   0.0851    0.2348055346927683E-01    0.0000000000000000E+00    0.0000000000000000E+00    0.2543548390294361E+00   -0.1043243563533456E+02    0.0000000000000000E+00    0.0000000000000000E+00    0.0000000000000000E+00    0.0000000000000000E+00    0.0000000000000000E+00
 -0.5221   0.0565    0.3060997429271285E-01    0.0000000000000000E+00    0.0000000000000000E+00    0.2660022693381353E+00   -0.1051077446532143E+02    0.0000000000000000E+00    0.0000000000000000E+00    0.0000000000000000E+00    0.0000000000000000E+00    0.0000000000000000E+00
 -0.5346   0.0286    0.3833638741938984E-01    0.0000000000000000E+00    0.0000000000000000E+00    0.2785697923470744E+00   -0.1032173570433490E+02    0.0000000000000000E+00    0.0000000000000000E+00    0.0000000000000000E+00    0.0000000000000000E+00    0.0000000000000000E+00
 -0.5467   0.0013    0.4601754765040540E-01    0.0000000000000000E+00    0.0000000000000000E+00    0.2920180729998288E+00   -0.9853230430696346E+01    0.0000000000000000E+00    0.0000000000000000E+00    0.0000000000000000E+00    0.0000000000000000E+00    0.0000000000000000E+00
 -0.5585  -0.0250    0.5295505310375354E-01    0.0000000000000000E+00    0.0000000000000000E+00    0.3062825603773635E+00   -0.9115949735129210E+01    0.0000000000000000E+00    0.0000000000000000E+00    0.0000000000000000E+00    0.0000000000000000E+00    0.0000000000000000E+00
 -0.5698  -0.0504    0.5848859989639179E-01    0.0000000000000000E+00    0.0000000000000000E+00    0.3212728094151800E+00   -0.8147885114250734E+01    0.0000000000000000E+00    0.0000000000000000E+00    0.0000000000000000E+00    0.0000000000000000E+00    0.0000000000000000E+00
 -0.5806  -0.0747    0.6210217416205720E-01    0.0000000000000000E+00    0.0000000000000000E+00    0.3368732378180911E+00   -0.7013326661573194E+01    0.0000000000000000E+00    0.0000000000000000E+00    0.0000000000000000E+00    0.0000000000000000E+00    0.0000000000000000E+00
 -0.5909  -0.0978    0.6351171569302733E-01    0.0000000000000000E+00    0.0000000000000000E+00    0.3529444314614332E+00   -0.5795039092478279E+01    0.0000000000000000E+00    0.0000000000000000E+00    0.0000000000000000E+00    0.0000000000000000E+00    0.0000000000000000E+00
 -0.6006  -0.1196    0.6270464162651354E-01    0.0000000000000000E+00    0.0000000000000000E+00    0.3693234257654101E+00   -0.4581046042321125E+01    0.0000000000000000E+00    0.0000000000000000E+00    0.0000000000000000E+00    0.0000000000000000E+00    0.0000000000000000E+00
 -0.6097  -0.1401    0.5991823165663459E-01    0.0000000000000000E+00    0.0000000000000000E+00    0.3858214333637604E+00   -0.3450079943342565E+01    0.0000000000000000E+00    0.0000000000000000E+00    0.0000000000000000E+00    0.0000000000000000E+00    0.0000000000000000E+00
 -0.6181  -0.1590    0.5556813605337343E-01    0.0000000000000000E+00    0.0000000000000000E+00    0.4022188197899570E+00   -0.2460351745982359E+01    0.0000000000000000E+00    0.0000000000000000E+00    0.0000000000000000E+00    0.0000000000000000E+00    0.0000000000000000E+00
 -0.6259  -0.1764    0.5015569685809829E-01    0.0000000000000000E+00    0.0000000000000000E+00    0.4182596966756177E+00   -0.1644739936404854E+01    0.0000000000000000E+00    0.0000000000000000E+00    0.0000000000000000E+00    0.0000000000000000E+00    0.0000000000000000E+00
 -0.6329  -0.1922    0.4418487298192779E-01    0.0000000000000000E+00    0.0000000000000000E+00    0.4336511160392915E+00   -0.1012449556316096E+01    0.0000000000000000E+00    0.0000000000000000E+00    0.0000000000000000E+00    0.0000000000000000E+00    0.0000000000000000E+00
 -0.6392  -0.2063    0.3810761963345046E-01    0.0000000000000000E+00    0.0000000000000000E+00    0.4480723909740418E+00   -0.5548812849074277E+00    0.0000000000000000E+00    0.0000000000000000E+00    0.0000000000000000E+00    0.0000000000000000E+00    0.0000000000000000E+00
 -0.6447  -0.2186    0.3230077677676021E-01    0.0000000000000000E+00    0.0000000000000000E+00    0.4611968763446076E+00   -0.2522165806838333E+00    0.0000000000000000E+00    0.0000000000000000E+00    0.0000000000000000E+00    0.0000000000000000E+00    0.0000000000000000E+00
 -0.6493  -0.2292    0.2706451175991359E-01    0.0000000000000000E+00    0.0000000000000000E+00    0.4727222835143187E+00   -0.7813864872527573E-01    0.0000000000000000E+00    0.0000000000000000E+00    0.0000000000000000E+00    0.0000000000000000E+00    0.0000000000000000E+00
 -0.6532  -0.2378    0.2262736998790458E-01    0.0000000000000000E+00    0.0000000000000000E+00    0.4823997545245764E+00   -0.1351240644215092E-02    0.0000000000000000E+00    0.0000000000000000E+00    0.0000000000000000E+00    0.0000000000000000E+00    0.0000000000000000E+00
 -0.6562  -0.2446    0.1914427051448428E-01    0.0000000000000000E+00    0.0000000000000000E+00    0.4900507560903895E+00    0.1393296104807270E-01    0.0000000000000000E+00    0.0000000000000000E+00    0.0000000000000000E+00    0.0000000000000000E+00    0.0000000000000000E+00
 -0.6584  -0.2495    0.1668562054412660E-01    0.0000000000000000E+00    0.0000000000000000E+00    0.4955660807362709E+00    0.5352436008083047E-02    0.0000000000000000E+00    0.0000000000000000E+00    0.0000000000000000E+00    0.0000000000000000E+00    0.0000000000000000E+00
 -0.6597  -0.2524    0.1523038349614954E-01    0.0000000000000000E+00    0.0000000000000000E+00    0.4988900915506381E+00   -0.5826960035462603E-04    0.0000000000000000E+00    0.0000000000000000E+00    0.0000000000000000E+00    0.0000000000000000E+00    0.0000000000000000E+00
 -0.6601  -0.2534    0.1474530968333265E-01    0.0000000000000000E+00    0.0000000000000000E+00    0.5000000000000000E+00    0.0000000000000000E+00    0.0000000000000000E+00    0.0000000000000000E+00    0.0000000000000000E+00    0.0000000000000000E+00    0.0000000000000000E+00
 -0.2524   0.6597    0.2514069560153247E-01    0.0000000000000000E+00    0.0000000000000000E+00   -0.5000000000000000E+00    0.3349825800291195E-03    0.0000000000000000E+00    0.0000000000000000E+00    0.0000000000000000E+00    0.0000000000000000E+00    0.0000000000000000E+00
 -0.2529   0.6587    0.2562588112415390E-01    0.3559760656829751E-07   -0.3546082792465936E-07   -0.4951387472325400E+00   -0.6435331128677711E-03   -0.1136089248429888E-10    0.2240481518844470E-09   -0.7649046326885234E-12   -0.7539442160864329E-12    0.1094377941133345E-10
 -0.2542   0.6558    0.2703676577728800E-01    0.6167671011748939E-05   -0.1997946042254017E-05   -0.4805786326375632E+00   -0.7442947924218374E-02   -0.3039331201688027E-08    0.2188329452541826E-09   -0.1384834955042713E-11   -0.1107374608677603E-11    0.4422583826935167E-10
 -0.2563   0.6509    0.2929434841841586E-01    0.3949503037996563E-04   -0.4618276624735844E-05   -0.4564079272773351E+00   -0.3705248561825059E-01   -0.2120089879191236E-07    0.2140153956831092E-09   -0.1307551506304905E-11   -0.1079334538411914E-11    0.1002089626556124E-09
 -0.2594   0.6441    0.3233339453333989E-01    0.1160041104700361E-03   -0.6274121001299214E-05   -0.4228350982231336E+00   -0.1052120268642768E+00   -0.6270613501188099E-07    0.2109004672290471E-09   -0.9282921653586129E-12   -0.1114053294060113E-11    0.1783413000611134E-09
 -0.2632   0.6355    0.3605397513112030E-01    0.2319680124985092E-03   -0.6700192716089959E-05   -0.3802909605073010E+00   -0.2097755896427060E+00   -0.1255041593300024E-06    0.2089968840351952E-09   -0.4834396771791205E-12   -0.1078342276583655E-11    0.2803885318369836E-09
 -0.2679   0.6249    0.4027156100048215E-01    0.3681617917998927E-03   -0.5911644277518208E-05   -0.3295759029456584E+00   -0.3339270506619812E+00   -0.1989626433371518E-06    0.2080872245346921E-09   -0.2214617378371031E-12   -0.1069408450682374E-11    0.4085131052877777E-09
 -0.2734   0.6126    0.4470299295732128E-01    0.4980804305104235E-03   -0.4379330674850001E-05   -0.2720207356213595E+00   -0.4536136655002240E+00   -0.2688329036643277E-06    0.2071625856969739E-09   -0.3514757929146128E-12   -0.1060540544273181E-11    0.5654725715453779E-09
 -0.2797   0.5985    0.4897569498109733E-01    0.5973203644086567E-03   -0.2542789956058001E-05   -0.2095949723321212E+00   -0.5464634910599638E+00   -0.3219161771963275E-06    0.2049837972972757E-09   -0.9827139102469573E-12   -0.1037307392759423E-11    0.7551945596651066E-09
 -0.2867   0.5827    0.5266453524864824E-01    0.6532294577625215E-03   -0.9950570451203176E-06   -0.1448840172160281E+00   -0.6006659456100887E+00   -0.3514757542321791E-06    0.1998544079794690E-09   -0.2139913246601566E-11   -0.1021659319644375E-11    0.9824214775022710E-09
 -0.2945   0.5653    0.5535263425958342E-01    0.6726099115617459E-03   -0.1978376683226692E-06   -0.8088932321163107E-01   -0.6221917057921784E+00   -0.3611967783711635E-06    0.1898111028162536E-09   -0.3788306474072911E-11   -0.1019753725906014E-11    0.1247290298822534E-08
 -0.3029   0.5464    0.5670861161937905E-01    0.6832296845461366E-03   -0.4492568650464693E-06   -0.2067528704007841E-01   -0.6362218194346944E+00   -0.3661042756932924E-06    0.1724738830487932E-09   -0.5842966735447597E-11   -0.9809961003248713E-12    0.1541940866656155E-08
 -0.3120   0.5259    0.5655296336328646E-01    0.7262049586620685E-03   -0.1666851934870404E-05    0.3305120916084794E-01   -0.6803179933880469E+00   -0.3883534840175720E-06    0.1454931743659349E-09   -0.8147144417436358E-11   -0.9542661799644137E-12    0.1845146133105935E-08
 -0.3217   0.5041    0.5488415033753821E-01    0.8421199118061438E-03   -0.3530676787680232E-05    0.7832849722468281E-01   -0.7917484379519018E+00   -0.4497980911798791E-06    0.1069950551768617E-09   -0.1046989925312936E-10   -0.9199099815226930E-12    0.2120125616733581E-08
 -0.3320   0.4810    0.5185149480391420E-01    0.1059317183596462E-02   -0.5623267157033197E-05    0.1142174888315935E+00   -0.9967400790596372E+00   -0.5656530466605476E-06    0.5637347012810157E-10   -0.1253686737756610E-10   -0.8945864882203836E-12    0.2319235435643829E-08
 -0.3428   0.4567    0.4769718999158462E-01    0.1391319931353104E-02   -0.7691712676527244E-05    0.1409082731532963E+00   -0.1307950513475244E+01   -0.7431544391983495E-06   -0.5533273492175361E-11   -0.1409686950504252E-10   -0.8464409728681233E-12    0.2395795492549091E-08
 -0.3541   0.4313    0.4270295678092073E-01    0.1841977951303363E-02   -0.9635846409843830E-05    0.1596041358371924E+00   -0.1729044393313629E+01   -0.9843519750558894E-06   -0.7641222030119188E-10   -0.1488029144347536E-10   -0.8120656924681668E-12    0.2321110491310119E-08
 -0.3658   0.4050    0.3716241068508602E-01    0.2411138403035350E-02   -0.1145919343375057E-04    0.1721779475053202E+00   -0.2259819840559159E+01   -0.1289171733609489E-05   -0.1529601480199094E-09   -0.1460583737289411E-10   -0.7416844916008358E-12    0.2095320181250138E-08
 -0.3780   0.3777    0.3137494950382530E-01    0.3095913784538319E-02   -0.1312671760786173E-04    0.1806955145008118E+00   -0.2897390321747394E+01   -0.1656109367655909E-05   -0.2315229986893375E-09   -0.1294338247692650E-10   -0.6730935253607129E-12    0.1749379642881910E-08
 -0.3904   0.3498    0.2564910205813243E-01    0.3888348283803237E-02   -0.1456722659063327E-04    0.1869810846375148E+00   -0.3634081039159887E+01   -0.2080945564397832E-05   -0.3083997709985020E-09   -0.9589317187530533E-11   -0.5882516695976392E-12    0.1332739729773685E-08
 -0.4032   0.3212    0.2030518324597725E-01    0.4772663667067913E-02   -0.1566144418777243E-04    0.1923755374863043E+00   -0.4454940835635876E+01   -0.2555283752230259E-05   -0.3799023109984923E-09   -0.4371981943140923E-11   -0.5039302308773586E-12    0.8958285007353538E-09
 -0.4161   0.2920    0.1567151615077037E-01    0.5724201108155045E-02   -0.1630493644115786E-04    0.1977181169575186E+00   -0.5336821992037726E+01   -0.3065936592445569E-05   -0.4421782974495247E-09    0.2672584376028908E-11   -0.4407169074127637E-12    0.4780508896726210E-09
 -0.4292   0.2626    0.1207063789590218E-01    0.6710381743537583E-02   -0.1640640275202522E-04    0.2034689574597952E+00   -0.6249311609316084E+01   -0.3595473403017182E-05   -0.4911533020568459E-09    0.1124834947408004E-10   -0.3297778716770949E-12    0.1036901176899863E-09
 -0.4425   0.2328    0.9796903251328384E-02    0.7692983434097285E-02   -0.1591842683285875E-04    0.2098611344702716E+00   -0.7156878663678317E+01   -0.4123389427096409E-05   -0.5226478243247623E-09    0.2082287120508397E-10   -0.2633587792288949E-12   -0.2172836424674252E-09
 -0.4558   0.2029    0.9089682041858943E-02    0.8630618721257343E-02   -0.1480642863742942E-04    0.2170147410232998E+00   -0.8021171289573617E+01   -0.4627486499264319E-05   -0.5328142198279817E-09    0.3073591381408391E-10   -0.1914302050209926E-12   -0.4822455776723467E-09
 -0.4691   0.1731    0.1010705029321809E-01    0.9480543488337927E-02   -0.1305129533063728E-04    0.2250001217316035E+00   -0.8802705397809778E+01   -0.5084784635543436E-05   -0.5187526727623570E-09    0.4029487854495528E-10   -0.1219857548306891E-12   -0.6936110921729188E-09
 -0.4823   0.1433    0.1290192851601067E-01    0.1019954050309652E-01   -0.1061710546311665E-04    0.2338650317938268E+00   -0.9461672614507821E+01   -0.5472060880079432E-05   -0.4790295243806142E-09    0.4885425397560539E-10   -0.8795741912592803E-13   -0.8552237156303488E-09
 -0.4955   0.1138    0.1740107056413283E-01    0.1074441240838542E-01   -0.7467963320186250E-05    0.2436430479401857E+00   -0.9958426455115175E+01   -0.5766039561255505E-05   -0.4139406057507289E-09    0.5590478080463868E-10   -0.8030381914991835E-13   -0.9713956644272215E-09
 -0.5084   0.0847    0.2338725663670272E-01    0.1107311664263371E-01   -0.3571856629544462E-05    0.2543539887006762E+00   -0.1025453161063176E+02   -0.5944077430657473E-05   -0.3255522691703039E-09    0.6106648520187719E-10   -0.8304468224196171E-13   -0.1046611703553468E-08
 -0.5212   0.0561    0.3048872475780210E-01    0.1114767481458284E-01    0.1046378617790699E-05    0.2660013360639490E+00   -0.1031548150041625E+02   -0.5985638214789676E-05   -0.2177547807867553E-09    0.6406825070470745E-10   -0.1050583231521074E-12   -0.1084858050615090E-08
 -0.5336   0.0281    0.3818381271512786E-01    0.1093946412519361E-01    0.6269801762531336E-05    0.2785687770910713E+00   -0.1011553279759747E+02   -0.5875236647575679E-05   -0.9589740460058671E-10    0.6478773073581579E-10   -0.1038093222494041E-12   -0.1090559975658323E-08
 -0.5457   0.0009    0.4583158739994465E-01    0.1043647672710561E-01    0.1183606875567720E-04    0.2920169788316926E+00   -0.9644350762034300E+01   -0.5606249918336172E-05    0.3348947161252447E-10    0.6322697920779774E-10   -0.1763728052495139E-12   -0.1068437992593485E-08
 -0.5575  -0.0255    0.5273568301323232E-01    0.9650717998848870E-02    0.1733974824896125E-04    0.3062813914118248E+00   -0.8913664835135638E+01   -0.5185036903763609E-05    0.1632295479336854E-09    0.5950318016090250E-10   -0.2024075351769739E-12   -0.1022330298541818E-08
 -0.5688  -0.0508    0.5823837844479395E-01    0.8622814099663371E-02    0.2226528325705829E-04    0.3212715690767970E+00   -0.7961393751449421E+01   -0.4633315884726989E-05    0.2862691472760304E-09    0.5397676750007463E-10   -0.2486344463648038E-12   -0.9571287269694029E-09
 -0.5796  -0.0751    0.6182626274729379E-01    0.7420830684905416E-02    0.2609446271931205E-04    0.3368719270228979E+00   -0.6850396644937327E+01   -0.3987696213635538E-05    0.3966567629909434E-09    0.4709965750748779E-10   -0.2446376434761532E-12   -0.8775799600901912E-09
 -0.5899  -0.0982    0.6321733064709950E-01    0.6131986253088195E-02    0.2842297585226708E-04    0.3529430478604692E+00   -0.5660865196975644E+01   -0.3295064510206319E-05    0.4902720313060271E-09    0.3950384463990986E-10   -0.2758349104681201E-12   -0.7885992813622122E-09
 -0.5996  -0.1201    0.6239994439940517E-01    0.4848802730228524E-02    0.2907122139923645E-04    0.3693219654899692E+00   -0.4477608444833248E+01   -0.2605301371771658E-05    0.5653199783295371E-09    0.3182026864223531E-10   -0.2652322805829499E-12   -0.6940953575784725E-09
 -0.6087  -0.1405    0.5961111261287696E-01    0.3653916579033145E-02    0.2811248569895586E-04    0.3858198963040552E+00   -0.3376294064299996E+01   -0.1962874037117905E-05    0.6222297954661116E-09    0.2460406878235233E-10   -0.2505218255066666E-12   -0.5985511426775947E-09
 -0.6171  -0.1594    0.5526516219544220E-01    0.2608394728773540E-02    0.2583124037840336E-04    0.4022172180280732E+00   -0.2412772462880027E+01   -0.1400760921001952E-05    0.6630409415953054E-09    0.1823494133468273E-10   -0.2516598041069074E-12   -0.5051469607192383E-09
 -0.6249  -0.1769    0.4986166641562421E-01    0.1746734479367156E-02    0.2261280357251914E-04    0.4182580634804851E+00   -0.1618640784895720E+01   -0.9374718138603601E-06    0.6906332242206936E-09    0.1291587670149141E-10   -0.2503414142651650E-12   -0.4164214702229163E-09
 -0.6319  -0.1926    0.4390283793477609E-01    0.1078606493999667E-02    0.1883163119446789E-04    0.4336495108244562E+00   -0.1002726987899478E+01   -0.5783112415346775E-06    0.7081010222620421E-09    0.8669051587695265E-11   -0.2716438185501602E-12   -0.3338903164368245E-09
 -0.6382  -0.2067    0.3783940990824115E-01    0.5949422173183548E-03    0.1476977083139920E-04    0.4480708954076620E+00   -0.5567335146341168E+00   -0.3182861918126860E-06    0.7181821595758642E-09    0.5446442342266211E-11   -0.2525896158900309E-12   -0.2588923537355514E-09
 -0.6437  -0.2191    0.3204741259902997E-01    0.2747742867849907E-03    0.1060905107568450E-04    0.4611955794889460E+00   -0.2612524165947367E+00   -0.1462701106945942E-06    0.7232619503305671E-09    0.3140661342104778E-11   -0.2891645256575259E-12   -0.1920027782598144E-09
 -0.6484  -0.2296    0.2682639945028323E-01    0.9008487020331566E-04    0.6505424907981965E-05    0.4727212589736707E+00   -0.9033369630711871E-01   -0.4706167667436347E-07    0.7252559854759033E-09    0.1641822094944345E-11   -0.3001106307909396E-12   -0.1347734562839875E-09
 -0.6522  -0.2383    0.2240352259447894E-01    0.7470317398043654E-05    0.2755164105948505E-05    0.4823990377398784E+00   -0.1274580103619188E-01   -0.2989232290327778E-08    0.7257958054007752E-09    0.8216101410329912E-12   -0.3131939152467567E-12   -0.8650791107761568E-10
 -0.6553  -0.2451    0.1893082743298560E-01   -0.1120256408979755E-04   -0.7799696792124949E-07    0.4900503319946415E+00    0.6789376144428049E-02    0.6713346332787768E-08    0.7260946727328892E-09    0.5013957998789564E-12   -0.3370034286354073E-12   -0.4850927038529962E-10
 -0.6574  -0.2499    0.1647388658978709E-01   -0.4949018870386371E-05   -0.1188345465715623E-05    0.4955658883834583E+00    0.3957912776598605E-02    0.2709903418164032E-08    0.7271319056850051E-09    0.4274072415433317E-12   -0.3673376706980758E-12   -0.2165509091489604E-10
 -0.6587  -0.2529    0.1501628649890629E-01   -0.2022879070220522E-06   -0.2023114209877623E-06    0.4988900432397620E+00    0.7035541708635571E-03    0.1722052140220667E-09    0.7287003909355397E-09    0.2515720921511533E-12   -0.2419332095771054E-12   -0.5456557840115284E-11
 -0.6592  -0.2538    0.1453097093971651E-01    0.0000000000000000E+00    0.0000000000000000E+00    0.5000000000000000E+00   -0.5794547128651399E-04    0.0000000000000000E+00    0.0000000000000000E+00    0.0000000000000000E+00    0.0000000000000000E+00    0.0000000000000000E+00
 -0.2495   0.6584    0.2581292228206063E-01    0.0000000000000000E+00    0.0000000000000000E+00   -0.5000000000000000E+00   -0.4498263404136113E-02    0.0000000000000000E+00    0.0000000000000000E+00    0.0000000000000000E+00    0.0000000000000000E+00    0.0000000000000000E+00
 -0.2499   0.6574    0.2629018162432639E-01    0.1996561208647049E-05   -0.6165240265378932E-05   -0.4951366507611914E+00   -0.7441635881737354E-02   -0.3037768357083415E-08    0.2191819785564431E-09   -0.1077661045253628E-11   -0.1471133544844738E-11    0.1128756474139819E-10
 -0.2512   0.6545    0.2769154564130305E-01    0.3135574510014449E-04   -0.3135997498580795E-04   -0.4805701666248346E+00   -0.1604062680912916E-01   -0.6222513427313498E-07    0.2171150516316889E-09   -0.3157945042617238E-11   -0.3589628594369287E-11    0.4441691155501748E-10
 -0.2534   0.6496    0.2994413523502215E-01    0.1521069155240495E-03   -0.6722722677500631E-04   -0.4563883333725369E+00   -0.3817267039395295E-01   -0.3317703644506050E-06    0.2137758824127811E-09   -0.4002112009848791E-11   -0.4428655359101086E-11    0.1000004783840991E-09
 -0.2564   0.6428    0.3296335458908447E-01    0.4231619611054693E-03   -0.9331643877870976E-04   -0.4227987139324514E+00   -0.8890137895234904E-01   -0.9428801330029742E-06    0.2108188623672902E-09   -0.3365812836775284E-11   -0.4651588142445817E-11    0.1782752574036595E-09
 -0.2603   0.6342    0.3663746920271103E-01    0.8438571345564618E-03   -0.1010000123186503E-03   -0.3802315201542791E+00   -0.1727372617445358E+00   -0.1882208281428120E-05    0.2088014691703499E-09   -0.2230063356201128E-11   -0.4547372894903035E-11    0.2804123773458844E-09
 -0.2650   0.6236    0.4078244618256047E-01    0.1351393894310176E-02   -0.9103643352268659E-04   -0.3294877744522782E+00   -0.2793262007810276E+00   -0.3001980618101627E-05    0.2075264057821435E-09   -0.1633637669584687E-11   -0.4333686187685259E-11    0.4082945093131229E-09
 -0.2705   0.6113    0.4512080320834701E-01    0.1849963886812108E-02   -0.6883118598587672E-04   -0.2719007375729523E+00   -0.3892027971203964E+00   -0.4087710352626869E-05    0.2061799272978782E-09   -0.2442913926703483E-11   -0.4061268682464814E-11    0.5651132825579275E-09
 -0.2767   0.5972    0.4928929406068792E-01    0.2247616611302960E-02   -0.4179612156633455E-04   -0.2094440607229571E+00   -0.4825323930961481E+00   -0.4937298328147551E-05    0.2035410624767753E-09   -0.5115463608262871E-11   -0.3816948493384764E-11    0.7549919509020064E-09