 title="result"
 variables="x","y","P","u","v","t","omega","psi","RES1","RES2","RES3","RES4"
zone,j= 49,i= 49,f=point
 -0.2191   0.6723    0.2452211333968016E-01    0.0000000000000000E+00    0.0000000000000000E+00   -0.5000000000000000E+00    0.0000000000000000E+00    0.0000000000000000E+00    0.0000000000000000E+00    0.0000000000000000E+00    0.0000000000000000E+00    0.0000000000000000E+00
 -0.2195   0.6714    0.2499673855222601E-01    0.0000000000000000E+00    0.0000000000000000E+00   -0.4950060000285546E+00    0.4384740330595761E-03    0.0000000000000000E+00    0.0000000000000000E+00    0.0000000000000000E+00    0.0000000000000000E+00    0.0000000000000000E+00
 -0.2210   0.6685    0.2636554335643549E-01    0.0000000000000000E+00    0.0000000000000000E+00   -0.4800484364001076E+00   -0.4660044926944665E-02    0.0000000000000000E+00    0.0000000000000000E+00    0.0000000000000000E+00    0.0000000000000000E+00    0.0000000000000000E+00
 -0.2234   0.6638    0.2854855162804452E-01    0.0000000000000000E+00    0.0000000000000000E+00   -0.4552193989791967E+00   -0.4265578401501726E-01    0.0000000000000000E+00    0.0000000000000000E+00    0.0000000000000000E+00    0.0000000000000000E+00    0.0000000000000000E+00
 -0.2268   0.6571    0.3150677709128447E-01    0.0000000000000000E+00    0.0000000000000000E+00   -0.4207395238714174E+00   -0.1331827245750034E+00    0.0000000000000000E+00    0.0000000000000000E+00    0.0000000000000000E+00    0.0000000000000000E+00    0.0000000000000000E+00
 -0.2311   0.6487    0.3516995789150845E-01    0.0000000000000000E+00    0.0000000000000000E+00   -0.3770721371314592E+00   -0.2716202582463631E+00    0.0000000000000000E+00    0.0000000000000000E+00    0.0000000000000000E+00    0.0000000000000000E+00    0.0000000000000000E+00
 -0.2363   0.6384    0.3937573906748156E-01    0.0000000000000000E+00    0.0000000000000000E+00   -0.3250895374759604E+00   -0.4349789950372322E+00    0.0000000000000000E+00    0.0000000000000000E+00    0.0000000000000000E+00    0.0000000000000000E+00    0.0000000000000000E+00
 -0.2424   0.6264    0.4385078807303708E-01    0.0000000000000000E+00    0.0000000000000000E+00   -0.2662515219942684E+00   -0.5909913354292716E+00    0.0000000000000000E+00    0.0000000000000000E+00    0.0000000000000000E+00    0.0000000000000000E+00    0.0000000000000000E+00
 -0.2494   0.6126    0.4821665163027918E-01    0.0000000000000000E+00    0.0000000000000000E+00   -0.2027126155894299E+00   -0.7092468354135371E+00    0.0000000000000000E+00    0.0000000000000000E+00    0.0000000000000000E+00    0.0000000000000000E+00    0.0000000000000000E+00
 -0.2573   0.5972    0.5203037990918088E-01    0.0000000000000000E+00    0.0000000000000000E+00   -0.1372641494565275E+00   -0.7724404617357346E+00    0.0000000000000000E+00    0.0000000000000000E+00    0.0000000000000000E+00    0.0000000000000000E+00    0.0000000000000000E+00
 -0.2659   0.5802    0.5485208156129615E-01    0.0000000000000000E+00    0.0000000000000000E+00   -0.7306876462939503E-01   -0.7852381889450973E+00    0.0000000000000000E+00    0.0000000000000000E+00    0.0000000000000000E+00    0.0000000000000000E+00    0.0000000000000000E+00
 -0.2753   0.5617    0.5633148143951596E-01    0.0000000000000000E+00    0.0000000000000000E+00   -0.1324004682006812E-01   -0.7760899494324673E+00    0.0000000000000000E+00    0.0000000000000000E+00    0.0000000000000000E+00    0.0000000000000000E+00    0.0000000000000000E+00
 -0.2854   0.5418    0.5628135124305798E-01    0.0000000000000000E+00    0.0000000000000000E+00    0.3960818199013932E-01   -0.7888310549683158E+00    0.0000000000000000E+00    0.0000000000000000E+00    0.0000000000000000E+00    0.0000000000000000E+00    0.0000000000000000E+00
 -0.2963   0.5205    0.5470506750834238E-01    0.0000000000000000E+00    0.0000000000000000E+00    0.8372204568644186E-01   -0.8672297106422681E+00    0.0000000000000000E+00    0.0000000000000000E+00    0.0000000000000000E+00    0.0000000000000000E+00    0.0000000000000000E+00
 -0.3077   0.4979    0.5176374344495598E-01    0.0000000000000000E+00    0.0000000000000000E+00    0.1184113857945338E+00   -0.1041772600857121E+01    0.0000000000000000E+00    0.0000000000000000E+00    0.0000000000000000E+00    0.0000000000000000E+00    0.0000000000000000E+00
 -0.3198   0.4742    0.4770982550374252E-01    0.0000000000000000E+00    0.0000000000000000E+00    0.1440724446610732E+00   -0.1326505163073643E+01    0.0000000000000000E+00    0.0000000000000000E+00    0.0000000000000000E+00    0.0000000000000000E+00    0.0000000000000000E+00
 -0.3324   0.4495    0.4282821770389203E-01    0.0000000000000000E+00    0.0000000000000000E+00    0.1620163814674942E+00   -0.1724601956479337E+01    0.0000000000000000E+00    0.0000000000000000E+00    0.0000000000000000E+00    0.0000000000000000E+00    0.0000000000000000E+00
 -0.3455   0.4238    0.3740842711825825E-01    0.0000000000000000E+00    0.0000000000000000E+00    0.1741195289948331E+00   -0.2234938915207056E+01    0.0000000000000000E+00    0.0000000000000000E+00    0.0000000000000000E+00    0.0000000000000000E+00    0.0000000000000000E+00
 -0.3590   0.3972    0.3174100561924161E-01    0.0000000000000000E+00    0.0000000000000000E+00    0.1823825452874982E+00   -0.2854180579768026E+01    0.0000000000000000E+00    0.0000000000000000E+00    0.0000000000000000E+00    0.0000000000000000E+00    0.0000000000000000E+00
 -0.3728   0.3699    0.2612342325751789E-01    0.0000000000000000E+00    0.0000000000000000E+00    0.1885452502339824E+00   -0.3574982463989138E+01    0.0000000000000000E+00    0.0000000000000000E+00    0.0000000000000000E+00    0.0000000000000000E+00    0.0000000000000000E+00
 -0.3870   0.3420    0.2086420534788836E-01    0.0000000000000000E+00    0.0000000000000000E+00    0.1938799428123469E+00   -0.4383461015903205E+01    0.0000000000000000E+00    0.0000000000000000E+00    0.0000000000000000E+00    0.0000000000000000E+00    0.0000000000000000E+00
 -0.4015   0.3136    0.1628043876855012E-01    0.0000000000000000E+00    0.0000000000000000E+00    0.1991843223867720E+00   -0.5258073957367132E+01    0.0000000000000000E+00    0.0000000000000000E+00    0.0000000000000000E+00    0.0000000000000000E+00    0.0000000000000000E+00
 -0.4161   0.2848    0.1268568153878245E-01    0.0000000000000000E+00    0.0000000000000000E+00    0.2048987779189629E+00   -0.6170268103781918E+01    0.0000000000000000E+00    0.0000000000000000E+00    0.0000000000000000E+00    0.0000000000000000E+00    0.0000000000000000E+00
 -0.4309   0.2558    0.1036975054184660E-01    0.0000000000000000E+00    0.0000000000000000E+00    0.2112488315386924E+00   -0.7086320032157420E+01    0.0000000000000000E+00    0.0000000000000000E+00    0.0000000000000000E+00    0.0000000000000000E+00    0.0000000000000000E+00
 -0.4457   0.2266    0.9574087055859742E-02    0.0000000000000000E+00    0.0000000000000000E+00    0.2183521928698201E+00   -0.7969379125592275E+01    0.0000000000000000E+00    0.0000000000000000E+00    0.0000000000000000E+00    0.0000000000000000E+00    0.0000000000000000E+00
 -0.4605   0.1975    0.1046713608242960E-01    0.0000000000000000E+00    0.0000000000000000E+00    0.2262786117906060E+00   -0.8780926763876014E+01    0.0000000000000000E+00    0.0000000000000000E+00    0.0000000000000000E+00    0.0000000000000000E+00    0.0000000000000000E+00
 -0.4753   0.1685    0.1312129847694143E-01    0.0000000000000000E+00    0.0000000000000000E+00    0.2350758964330593E+00   -0.9481362344288399E+01    0.0000000000000000E+00    0.0000000000000000E+00    0.0000000000000000E+00    0.0000000000000000E+00    0.0000000000000000E+00
 -0.4899   0.1397    0.1749147671797635E-01    0.0000000000000000E+00    0.0000000000000000E+00    0.2447780918909618E+00   -0.1003017698325024E+02    0.0000000000000000E+00    0.0000000000000000E+00    0.0000000000000000E+00    0.0000000000000000E+00    0.0000000000000000E+00
 -0.5043   0.1113    0.2339511564137878E-01    0.0000000000000000E+00    0.0000000000000000E+00    0.2554059115697954E+00   -0.1038666129982650E+02    0.0000000000000000E+00    0.0000000000000000E+00    0.0000000000000000E+00    0.0000000000000000E+00    0.0000000000000000E+00
 -0.5185   0.0834    0.3049725628104188E-01    0.0000000000000000E+00    0.0000000000000000E+00    0.2669641735995723E+00   -0.1051230017738028E+02    0.0000000000000000E+00    0.0000000000000000E+00    0.0000000000000000E+00    0.0000000000000000E+00    0.0000000000000000E+00
 -0.5324   0.0561    0.3830855249162585E-01    0.0000000000000000E+00    0.0000000000000000E+00    0.2794382855860907E+00   -0.1037559141502439E+02    0.0000000000000000E+00    0.0000000000000000E+00    0.0000000000000000E+00    0.0000000000000000E+00    0.0000000000000000E+00
 -0.5459   0.0295    0.4620785644780669E-01    0.0000000000000000E+00    0.0000000000000000E+00    0.2927908728082451E+00   -0.9959144655893303E+01    0.0000000000000000E+00    0.0000000000000000E+00    0.0000000000000000E+00    0.0000000000000000E+00    0.0000000000000000E+00
 -0.5590   0.0038    0.5349891669724881E-01    0.0000000000000000E+00    0.0000000000000000E+00    0.3069593647669871E+00   -0.9267495096471100E+01    0.0000000000000000E+00    0.0000000000000000E+00    0.0000000000000000E+00    0.0000000000000000E+00    0.0000000000000000E+00
 -0.5716  -0.0210    0.5950122198299165E-01    0.0000000000000000E+00    0.0000000000000000E+00    0.3218550921980909E+00   -0.8332829937339902E+01    0.0000000000000000E+00    0.0000000000000000E+00    0.0000000000000000E+00    0.0000000000000000E+00    0.0000000000000000E+00
 -0.5837  -0.0447    0.6365896243718527E-01    0.0000000000000000E+00    0.0000000000000000E+00    0.3373639071951885E+00   -0.7215405797773332E+01    0.0000000000000000E+00    0.0000000000000000E+00    0.0000000000000000E+00    0.0000000000000000E+00    0.0000000000000000E+00
 -0.5951  -0.0672    0.6563776847004564E-01    0.0000000000000000E+00    0.0000000000000000E+00    0.3533475296026539E+00   -0.5996824109782246E+01    0.0000000000000000E+00    0.0000000000000000E+00    0.0000000000000000E+00    0.0000000000000000E+00    0.0000000000000000E+00
 -0.6059  -0.0885    0.6537654424414568E-01    0.0000000000000000E+00    0.0000000000000000E+00    0.3696440676582696E+00   -0.4767080168782224E+01    0.0000000000000000E+00    0.0000000000000000E+00    0.0000000000000000E+00    0.0000000000000000E+00    0.0000000000000000E+00
 -0.6161  -0.1085    0.6307651132507314E-01    0.0000000000000000E+00    0.0000000000000000E+00    0.3860660771133423E+00   -0.3609300207146554E+01    0.0000000000000000E+00    0.0000000000000000E+00    0.0000000000000000E+00    0.0000000000000000E+00    0.0000000000000000E+00
 -0.6255  -0.1270    0.5913480993773197E-01    0.0000000000000000E+00    0.0000000000000000E+00    0.4023957316059429E+00   -0.2587139098080145E+01    0.0000000000000000E+00    0.0000000000000000E+00    0.0000000000000000E+00    0.0000000000000000E+00    0.0000000000000000E+00
 -0.6341  -0.1439    0.5405054195276356E-01    0.0000000000000000E+00    0.0000000000000000E+00    0.4183792338136201E+00   -0.1738554255230531E+01    0.0000000000000000E+00    0.0000000000000000E+00    0.0000000000000000E+00    0.0000000000000000E+00    0.0000000000000000E+00
 -0.6420  -0.1593    0.4833626981705654E-01    0.0000000000000000E+00    0.0000000000000000E+00    0.4337253913473844E+00   -0.1076516469816180E+01    0.0000000000000000E+00    0.0000000000000000E+00    0.0000000000000000E+00    0.0000000000000000E+00    0.0000000000000000E+00
 -0.6489  -0.1731    0.4245711368766218E-01    0.0000000000000000E+00    0.0000000000000000E+00    0.4481141370834565E+00   -0.5946004963295632E+00    0.0000000000000000E+00    0.0000000000000000E+00    0.0000000000000000E+00    0.0000000000000000E+00    0.0000000000000000E+00
 -0.6551  -0.1851    0.3680302885633148E-01    0.0000000000000000E+00    0.0000000000000000E+00    0.4612178043978767E+00   -0.2737953797655269E+00    0.0000000000000000E+00    0.0000000000000000E+00    0.0000000000000000E+00    0.0000000000000000E+00    0.0000000000000000E+00
 -0.6603  -0.1954    0.3168504091592535E-01    0.0000000000000000E+00    0.0000000000000000E+00    0.4727316098821189E+00   -0.8765667725926173E-01    0.0000000000000000E+00    0.0000000000000000E+00    0.0000000000000000E+00    0.0000000000000000E+00    0.0000000000000000E+00
 -0.6646  -0.2039    0.2733997423096515E-01    0.0000000000000000E+00    0.0000000000000000E+00    0.4824035372026124E+00   -0.4137208168485504E-02    0.0000000000000000E+00    0.0000000000000000E+00    0.0000000000000000E+00    0.0000000000000000E+00    0.0000000000000000E+00
 -0.6680  -0.2105    0.2392850279745058E-01    0.0000000000000000E+00    0.0000000000000000E+00    0.4900522281892782E+00    0.1380819860024239E-01    0.0000000000000000E+00    0.0000000000000000E+00    0.0000000000000000E+00    0.0000000000000000E+00    0.0000000000000000E+00
 -0.6704  -0.2152    0.2152384663577445E-01    0.0000000000000000E+00    0.0000000000000000E+00    0.4955666198136089E+00    0.5565708096823680E-02    0.0000000000000000E+00    0.0000000000000000E+00    0.0000000000000000E+00    0.0000000000000000E+00    0.0000000000000000E+00
 -0.6718  -0.2181    0.2010337378159898E-01    0.0000000000000000E+00    0.0000000000000000E+00    0.4988902195848912E+00   -0.4767370824862207E-04    0.0000000000000000E+00    0.0000000000000000E+00    0.0000000000000000E+00    0.0000000000000000E+00    0.0000000000000000E+00
 -0.6723  -0.2191    0.1963033967571106E-01    0.0000000000000000E+00    0.0000000000000000E+00    0.5000000000000000E+00    0.0000000000000000E+00    0.0000000000000000E+00    0.0000000000000000E+00    0.0000000000000000E+00    0.0000000000000000E+00    0.0000000000000000E+00
 -0.2181   0.6718    0.2476484765203284E-01    0.0000000000000000E+00    0.0000000000000000E+00   -0.5000000000000000E+00    0.4388773925233992E-03    0.0000000000000000E+00    0.0000000000000000E+00    0.0000000000000000E+00    0.0000000000000000E+00    0.0000000000000000E+00
 -0.2186   0.6709    0.2523826255418108E-01   -0.4272140122226618E-08    0.4516295254034666E-08   -0.4950058476891320E+00   -0.6796732596142226E-03    0.1853738674855641E-10    0.9584257443673999E-10   -0.7547387194384303E-12   -0.7723947349769222E-12    0.1346499821364144E-10
 -0.2200   0.6680    0.2660921730242949E-01    0.6754520246069562E-05   -0.2263746930470899E-05   -0.4800478175310023E+00   -0.8454297859506674E-02   -0.3281491056996543E-08    0.9048157535718193E-10   -0.1419610089203882E-11   -0.1133086680038531E-11    0.5322271789953703E-10
 -0.2225   0.6633    0.2879619400909799E-01    0.4597575337173526E-04   -0.5515766018672856E-05   -0.4552179448462148E+00   -0.4350027024405837E-01   -0.2461088502627658E-07    0.8538132353907990E-10   -0.1295891806406615E-11   -0.1100449592561503E-11    0.1201770263165036E-09
 -0.2258   0.6566    0.3174890522528193E-01    0.1387371824499273E-03   -0.7682960026821671E-05   -0.4207367733871049E+00   -0.1262308847508216E+00   -0.7492297795640005E-07    0.8187709017726252E-10   -0.7882097752265338E-12   -0.1138519833965290E-11    0.2131252986592447E-09
 -0.2301   0.6482    0.3539392275946911E-01    0.2820591481244603E-03   -0.8343309370994129E-05   -0.3770675813148073E+00   -0.2554622663788167E+00   -0.1525294966546174E-06    0.7964629823720148E-10   -0.7716743910535229E-13   -0.1153362128025748E-11    0.3342460926092361E-09
 -0.2354   0.6379    0.3957037921991635E-01    0.4527295794708661E-03   -0.7453782846871100E-05   -0.3250827448209085E+00   -0.4109257909502768E+00   -0.2446099991235479E-06    0.7866599732730961E-10    0.5598646546367547E-12   -0.1112887559884257E-11    0.4827665489592903E-09
 -0.2415   0.6259    0.4400757900393566E-01    0.6172450204308202E-03   -0.5573088752509325E-05   -0.2662423027774516E+00   -0.5622398846888110E+00   -0.3331285245542003E-06    0.7808106938789194E-10    0.8620743008336262E-12   -0.1101070623565903E-11    0.6604041410951389E-09
 -0.2485   0.6121    0.4833120744902887E-01    0.7436104299560639E-03   -0.3237483484727308E-05   -0.2027011529206553E+00   -0.6800622524899820E+00   -0.4008013486281646E-06    0.7677191694865915E-10    0.6330769242168799E-12   -0.1080502007311246E-11    0.8669465562105572E-09
 -0.2563   0.5967    0.5210295498870370E-01    0.8133691090673498E-03   -0.1174061381156085E-05   -0.1372510216631819E+00   -0.7471934216804462E+00   -0.4377755714997326E-06    0.7307744340212530E-10   -0.2396069453958205E-12   -0.1047840633705555E-11    0.1101414667803446E-08
 -0.2649   0.5797    0.5488749353283761E-01    0.8310425301862803E-03    0.5416909280463912E-07   -0.7305483358918079E-01   -0.7674222297075521E+00   -0.4465276730107511E-06    0.6502388845463017E-10   -0.1809621896775582E-11   -0.1034240401653896E-11    0.1359857421112665E-08
 -0.2743   0.5612    0.5633772396305563E-01    0.8261674205805547E-03    0.7456090571313815E-07   -0.1322626594179624E-01   -0.7674647176998993E+00   -0.4430485816084934E-06    0.5024144889996442E-10   -0.4031577155449995E-11   -0.9834576187271737E-12    0.1630278606556956E-08
 -0.2845   0.5413    0.5626745833382561E-01    0.8446086650809485E-03   -0.1033788447301567E-05    0.3962094607288902E-01   -0.7891738098734414E+00   -0.4520656018367833E-06    0.2645102799986310E-10   -0.6745085067740020E-11   -0.9578336387927600E-12    0.1890141182459004E-08
 -0.2953   0.5200    0.5467902932981814E-01    0.9324154958020757E-03   -0.2910720966632156E-05    0.8373312093480495E-01   -0.8748060092991891E+00   -0.4983769224139786E-06   -0.8012012060742979E-11   -0.9653323279623649E-11   -0.9008644524799436E-12    0.2104834612159934E-08
 -0.3068   0.4975    0.5173157972004715E-01    0.1121896770605124E-02   -0.5068144317453556E-05    0.1184203436707043E+00   -0.1054241248248948E+01   -0.5993333650443480E-06   -0.5338312951408408E-10   -0.1241520428130194E-10   -0.9188969030127225E-12    0.2232230587873030E-08
 -0.3188   0.4738    0.4767577136274585E-01    0.1428126229302122E-02   -0.7202645215931210E-05    0.1440791259886361E+00   -0.1341597247189845E+01   -0.7629960841985092E-06   -0.1084070645751556E-09   -0.1472000993318900E-10   -0.8183800859207224E-12    0.2233636671455930E-08
 -0.3314   0.4490    0.4279531105947253E-01    0.1854618468824528E-02   -0.9186823160961482E-05    0.1620209025044690E+00   -0.1740269409973890E+01   -0.9912299283804932E-06   -0.1705393153084156E-09   -0.1631435958548977E-10   -0.7776071453413635E-12    0.2088521005444433E-08
 -0.3445   0.4233    0.3737875292588248E-01    0.2400158202831373E-02   -0.1102673183510602E-04    0.1741222382504032E+00   -0.2249111283364194E+01   -0.1283380479513426E-05   -0.2366747145488013E-09   -0.1694420298514743E-10   -0.7194383977449093E-12    0.1803556387569571E-08
 -0.3580   0.3967    0.3171560731698900E-01    0.3061014344228132E-02   -0.1269727039614448E-04    0.1823839184006902E+00   -0.2864486523041786E+01   -0.1637487241455373E-05   -0.3035068446566314E-09   -0.1631529980561375E-10   -0.6214542769278353E-12    0.1413208579673086E-08
 -0.3719   0.3694    0.2610217975788105E-01    0.3829093393900788E-02   -0.1414447326574846E-04    0.1885457587562462E+00   -0.3578618903272755E+01   -0.2049249376729214E-05   -0.3680883237100474E-09   -0.1415122359571530E-10   -0.5552225346150408E-12    0.9668846326880975E-09
 -0.3861   0.3415    0.2084589259888846E-01    0.4689322605208092E-02   -0.1526136642777546E-04    0.1938799560845103E+00   -0.4377230476610259E+01   -0.2510647780937689E-05   -0.4276366413757948E-09   -0.1028318749596302E-10   -0.4701100619897147E-12    0.5136207957968757E-09
 -0.4005   0.3131    0.1626294944571533E-01    0.5618516557887238E-02   -0.1595572262189921E-04    0.1991840754587158E+00   -0.5238549862651087E+01   -0.3009281225782913E-05   -0.4793374898393044E-09   -0.4697194022629247E-11   -0.3888001032237298E-12    0.9055212265782209E-10
 -0.4152   0.2843    0.1266630253250416E-01    0.6586113958099827E-02   -0.1614092855886669E-04    0.2048983933989534E+00   -0.6134032533337254E+01   -0.3528804556838043E-05   -0.5201430917922689E-09    0.2352104622183049E-11   -0.3037986529008663E-12   -0.2814062385891880E-09
 -0.4299   0.2553    0.1034540969502970E-01    0.7556161249513094E-02   -0.1577254851032573E-04    0.2112483610848641E+00   -0.7030236152125047E+01   -0.4049930636912851E-05   -0.5467825289762196E-09    0.1043298780700752E-10   -0.2051275815873055E-12   -0.5938506457414672E-09
 -0.4447   0.2261    0.9541498434791903E-02    0.8489496746758387E-02   -0.1481283102553368E-04    0.2183516522969921E+00   -0.7890845194234450E+01   -0.4551663307691808E-05   -0.5561590840641450E-09    0.1897634827052741E-10   -0.1514205427710635E-12   -0.8465144774386091E-09
 -0.4596   0.1970    0.1042284242616168E-01    0.9345301112787653E-02   -0.1323856110716827E-04    0.2262780019800993E+00   -0.8678123062397043E+01   -0.5012060032672601E-05   -0.5457817843501633E-09    0.2738453908079919E-10   -0.8960887587505795E-13   -0.1042769985810932E-08
 -0.4743   0.1680    0.1306161724814333E-01    0.1008172775402385E-01   -0.1100397948558120E-04    0.2350752132571094E+00   -0.9353486796121594E+01   -0.5408644451521054E-05   -0.5143024305043209E-09    0.3513450641534632E-10   -0.6504519145522636E-13   -0.1187733428970050E-08
 -0.4889   0.1392    0.1741245028492798E-01    0.1065610330165610E-01   -0.8060068255622182E-05    0.2447773303867136E+00   -0.9877727483004055E+01   -0.5718428778696557E-05   -0.4615506726812768E-09    0.4179739887533174E-10   -0.5579564588131802E-13   -0.1286580622421318E-08
 -0.5034   0.1108    0.2329253160608794E-01    0.1102570624610494E-01   -0.4353180162117257E-05    0.2554050677761152E+00   -0.1021173529672159E+02   -0.5918416524195876E-05   -0.3888036229776626E-09    0.4705047462749690E-10   -0.5790506962810582E-13   -0.1343742842691009E-08
 -0.5176   0.0829    0.3036687971620960E-01    0.1115031992417172E-01    0.1190447726061397E-06    0.2669632455225643E+00   -0.1031889929231594E+02   -0.5986873350932634E-05   -0.2986609634191180E-09    0.5069572539539990E-10   -0.1063123113848041E-12   -0.1363935329262711E-08
 -0.5315   0.0556    0.3814658860549393E-01    0.1099731980921903E-01    0.5272571906967877E-05    0.2794372736540862E+00   -0.1016976501215873E+02   -0.5906169447665590E-05   -0.1948092000214618E-09    0.5263611768668852E-10   -0.1644101521591779E-12   -0.1351873561011852E-08
 -0.5450   0.0290    0.4601167923310009E-01    0.1054910655818360E-01    0.1087401151830029E-04    0.2927897797138519E+00   -0.9748853609408544E+01   -0.5666671296717239E-05   -0.8206705107149936E-10    0.5277567272088390E-10   -0.1943098459911141E-12   -0.1312091520502823E-08
 -0.5580   0.0033    0.5326786001010532E-01    0.9811229777128111E-02    0.1653492171042259E-04    0.3069581945196063E+00   -0.9061989212384388E+01   -0.5271261157556866E-05    0.3406479265333218E-10    0.5117639645391137E-10   -0.2447625435664236E-12   -0.1248312462079348E-08
 -0.5706  -0.0215    0.5923724229357380E-01    0.8818260102665594E-02    0.2173262784188270E-04    0.3218538484307112E+00   -0.8141582679256048E+01   -0.4738384777924609E-05    0.1477465580435045E-09    0.4794276087238813E-10   -0.2875616411657234E-12   -0.1165608502079474E-08
 -0.5827  -0.0452    0.6336679491683223E-01    0.7634084170363570E-02    0.2591527587662855E-04    0.3373625912534933E+00   -0.7046718856075764E+01   -0.4102393081711983E-05    0.2534404422438463E-09    0.4331929259748790E-10   -0.2930850007132335E-12   -0.1068773066575934E-08
 -0.5942  -0.0677    0.6532448506802688E-01    0.6344750337679366E-02    0.2862291616910406E-04    0.3533461395416481E+00   -0.5856567598813437E+01   -0.3409529582313509E-05    0.3466791853590223E-09    0.3770195267094323E-10   -0.3122779812514409E-12   -0.9617241152753975E-09
 -0.6050  -0.0890    0.6505047260712785E-01    0.5044880836843678E-02    0.2961476317931868E-04    0.3696425996548847E+00   -0.4657889273279880E+01   -0.2710804642492030E-05    0.4246263618501445E-09    0.3154826400120214E-10   -0.3061717546160025E-12   -0.8491718977293727E-09
 -0.6151  -0.1089    0.6274595961147000E-01    0.3821730123654938E-02    0.2891479767014898E-04    0.3860645304978970E+00   -0.3530586066066439E+01   -0.2053168666696295E-05    0.4862749924949838E-09    0.2533520615521923E-10   -0.2653155473097968E-12   -0.7354252970492858E-09
 -0.6245  -0.1274    0.5880689276897054E-01    0.2742070202896305E-02    0.2678268513913799E-04    0.4023941173488794E+00   -0.2535721363649606E+01   -0.1472680054806139E-05    0.5323612661811694E-09    0.1946917627115852E-10   -0.2866734627460232E-12   -0.6233159439983371E-09
 -0.6332  -0.1444    0.5373060984651930E-01    0.1845717725213909E-02    0.2360529179441476E-04    0.4183775840005116E+00   -0.1709752234557878E+01   -0.9907119745780002E-06    0.5647996167978953E-09    0.1425763673790215E-10   -0.2763067552535858E-12   -0.5160778106944042E-09
 -0.6410  -0.1598    0.4802784207283269E-01    0.1146292074010867E-02    0.1977603789442750E-04    0.4337237649247772E+00   -0.1065116088040324E+01   -0.6147028027335722E-06    0.5860875049168435E-09    0.9859869865014304E-11   -0.2758349104681201E-12   -0.4152203823826195E-09
 -0.6480  -0.1736    0.4216237945059582E-01    0.6370102711133087E-03    0.1560297702970772E-04    0.4481126166724054E+00   -0.5956133319208803E+00   -0.3408840384450956E-06    0.5988375073595620E-09    0.6348884417327338E-11   -0.2745581539898012E-12   -0.3231297972250413E-09
 -0.6541  -0.1856    0.3652327556592373E-01    0.2977592304876929E-03    0.1128810132539457E-04    0.4612164815703504E+00   -0.2826218494274166E+00   -0.1585957222550061E-06    0.6055250814651636E-09    0.3731473463552959E-11   -0.2812264310314561E-12   -0.2404265155020457E-09
 -0.6593  -0.1959    0.3142089341632698E-01    0.1003839865545255E-03    0.7002752602314693E-05    0.4727305616381129E+00   -0.1000669047576777E+00   -0.5255425475159431E-07    0.6083053973732211E-09    0.1969903407061935E-11   -0.3055194985890353E-12   -0.1685753151653424E-09
 -0.6636  -0.2044    0.2709060499499326E-01    0.1067381240454330E-04    0.3053261845205102E-05    0.4824028020122562E+00   -0.1595501680176682E-01   -0.4667662031722643E-08    0.6091159200291574E-09    0.9651446308822642E-12   -0.3402399889607111E-12   -0.1087366681071233E-09
 -0.6670  -0.2110    0.2369009483459327E-01   -0.1086302705962763E-04    0.3242286197281674E-07    0.4900517924505609E+00    0.6264998103095129E-02    0.6569915776748232E-08    0.6094430637232362E-09    0.5558400961724885E-12   -0.3474820257920452E-12   -0.6142736709915941E-10
 -0.6694  -0.2157    0.2128743517874834E-01   -0.5089099052256426E-05   -0.1205544452248396E-05    0.4955664220022830E+00    0.4000214686564568E-02    0.2796610038898822E-08    0.6105193312705426E-09    0.4549381704688216E-12   -0.3725262286147224E-12   -0.2739479519967003E-10
 -0.6709  -0.2186    0.1986458898696477E-01   -0.2159860140582993E-06   -0.2159483653471030E-06    0.4988901698899135E+00    0.7290769464183614E-03    0.1838025216051267E-09    0.6121812630389620E-09    0.2777817580991437E-12   -0.2666833767706045E-12   -0.7193669271376990E-11
 -0.6714  -0.2195    0.1939128567339430E-01    0.0000000000000000E+00    0.0000000000000000E+00    0.5000000000000000E+00   -0.4741868577965081E-04    0.0000000000000000E+00    0.0000000000000000E+00    0.0000000000000000E+00    0.0000000000000000E+00    0.0000000000000000E+00
 -0.2152   0.6704    0.2551653848484500E-01    0.0000000000000000E+00    0.0000000000000000E+00   -0.5000000000000000E+00   -0.4655411734624896E-02    0.0000000000000000E+00    0.0000000000000000E+00    0.0000000000000000E+00    0.0000000000000000E+00    0.0000000000000000E+00
 -0.2157   0.6694    0.2598054844041096E-01    0.2262179855750542E-05   -0.6751615505751956E-05   -0.4950035955599480E+00   -0.8453091965344840E-02   -0.3279570234830188E-08    0.9091726069915262E-10   -0.1078932407826139E-11   -0.1484209023044913E-11    0.1330589284587180E-10
 -0.2172   0.6666    0.2734059961091007E-01    0.3640106387349760E-04   -0.3640489704096139E-04   -0.4800387078928354E+00   -0.1934852474969925E-01   -0.7085805672997326E-07    0.8875753604309367E-10   -0.3201993032699024E-11   -0.3665833261945473E-11    0.5309831220545735E-10
 -0.2196   0.6618    0.2952375758013687E-01    0.1803699688434621E-03   -0.8066427887865746E-04   -0.4551967599877481E+00   -0.4651506874286689E-01   -0.3903856101702585E-06    0.8518247218702868E-10   -0.3890682047369420E-11   -0.4605756748210510E-11    0.1198031257532151E-09
 -0.2230   0.6552    0.3245681034672589E-01    0.5102340583409228E-03   -0.1143842950874769E-03   -0.4206971500640646E+00   -0.1086726949326111E+00   -0.1132806373504628E-05    0.8187803213210998E-10   -0.2765516982083938E-11   -0.4906616779543072E-11    0.2133503408663362E-09
 -0.2273   0.6467    0.3605083376803743E-01    0.1030297571396795E-02   -0.1256888792821401E-03   -0.3770024056246521E+00   -0.2123098709544472E+00   -0.2293843016419161E-05    0.7954478742355775E-10   -0.6606243330153916E-12   -0.4862714397813050E-11    0.3341446216942323E-09
 -0.2325   0.6365    0.4014462465214647E-01    0.1665052351191241E-02   -0.1145435392508252E-03   -0.3249857642549919E+00   -0.3451467238796885E+00   -0.3695553718320019E-05    0.7816121361248207E-10    0.1321893983163847E-11   -0.4676911635748127E-11    0.4827528723994057E-09
 -0.2386   0.6244    0.4447401421787620E-01    0.2293424078995916E-02   -0.8720170109755487E-04   -0.2661104413705950E+00   -0.4826293231571225E+00   -0.5066840076338051E-05    0.7710547478279040E-10    0.2118458186650685E-11   -0.4360241334655512E-11    0.6600766253028745E-09
 -0.2456   0.6107    0.4867601395132058E-01    0.2794788758455645E-02   -0.5268764561065114E-04   -0.2025365078212867E+00   -0.5987154877490251E+00   -0.6142694763082792E-05    0.7521446312996893E-10    0.9600792383324119E-12   -0.4056005531438700E-11    0.8664707701333541E-09