
title="result"
variables="x","y","P","u","v","omega","psi"
zone,j=49, i=49,f=point
   0.4156269377775068	  -0.5720614028176456	   0.0000000000000000	   0.0000000000000000	   0.0000000000000000	   0.5000000000000000	   0.0000000000000000	   0.0000000000000000	
   0.4157944068763962	  -0.5710040445408703	   0.0000000000000000	   0.0000000000000000	   0.0000000000000000	   0.4960314267211105	  -0.0001146604407135	   0.0000000000000000	
   0.4162960970446729	  -0.5678364974810142	   0.0000000000000000	   0.0000000000000000	   0.0000000000000000	   0.4841442619114847	  -0.0026529237079290	   0.0000000000000000	
   0.4171298599680152	  -0.5625723255608783	   0.0000000000000000	   0.0000000000000000	   0.0000000000000000	   0.4644029155296887	  -0.0071378865765890	   0.0000000000000000	
   0.4182921253455839	  -0.5552340707727950	   0.0000000000000000	   0.0000000000000000	   0.0000000000000000	   0.4369438739165124	  -0.0078196136987263	   0.0000000000000000	
   0.4197779161785981	  -0.5458531566503562	   0.0000000000000000	   0.0000000000000000	   0.0000000000000000	   0.4020169834060945	   0.0000153881139451	   0.0000000000000000	
   0.4215808700826078	  -0.5344697537080183	   0.0000000000000000	   0.0000000000000000	   0.0000000000000000	   0.3600395501225798	   0.0163872314880478	   0.0000000000000000	
   0.4236932665322017	  -0.5211326074247924	   0.0000000000000000	   0.0000000000000000	   0.0000000000000000	   0.3116628142856932	   0.0364141891608315	   0.0000000000000000	
   0.4261060599214817	  -0.5058988295086189	   0.0000000000000000	   0.0000000000000000	   0.0000000000000000	   0.2578504684576827	   0.0512680536336180	   0.0000000000000000	
   0.4288089182987360	  -0.4888336533352672	   0.0000000000000000	   0.0000000000000000	   0.0000000000000000	   0.1999609066880773	   0.0493570054148342	   0.0000000000000000	
   0.4317902676094429	  -0.4700101546090050	   0.0000000000000000	   0.0000000000000000	   0.0000000000000000	   0.1398073247418258	   0.0171709789569060	   0.0000000000000000	
   0.4350373412581487	  -0.4495089384412144	   0.0000000000000000	   0.0000000000000000	   0.0000000000000000	   0.0796496703136444	  -0.0597771929812744	   0.0000000000000000	
   0.4385362347769901	  -0.4274177941869297	   0.0000000000000000	   0.0000000000000000	   0.0000000000000000	   0.0220637978391052	  -0.1954834674472748	   0.0000000000000000	
   0.4422719653667594	  -0.4038313195173420	   0.0000000000000000	   0.0000000000000000	   0.0000000000000000	  -0.0303481609474876	  -0.4015269821901716	   0.0000000000000000	
   0.4462285360555514	  -0.3788505153380479	   0.0000000000000000	   0.0000000000000000	   0.0000000000000000	  -0.0753855747123779	  -0.6856857375496486	   0.0000000000000000	
   0.4503890042002528	  -0.3525823532876660	   0.0000000000000000	   0.0000000000000000	   0.0000000000000000	  -0.1117075048799966	  -1.0520063481085622	   0.0000000000000000	
   0.4547355540375415	  -0.3251393176688575	   0.0000000000000000	   0.0000000000000000	   0.0000000000000000	  -0.1391406077641107	  -1.5020969759941307	   0.0000000000000000	
   0.4592495729737196	  -0.2966389237732737	   0.0000000000000000	   0.0000000000000000	   0.0000000000000000	  -0.1586709712396849	  -2.0361245361021760	   0.0000000000000000	
   0.4639117312866977	  -0.2672032146630358	   0.0000000000000000	   0.0000000000000000	   0.0000000000000000	  -0.1720914648349319	  -2.6521588107532046	   0.0000000000000000	
   0.4687020648988320	  -0.2369582385636058	   0.0000000000000000	   0.0000000000000000	   0.0000000000000000	  -0.1814603082772433	  -3.3438619454085328	   0.0000000000000000	
   0.4736000608661700	  -0.2060335091059347	   0.0000000000000000	   0.0000000000000000	   0.0000000000000000	  -0.1886152140669014	  -4.0978162436847922	   0.0000000000000000	
   0.4785847452180254	  -0.1745614507292113	   0.0000000000000000	   0.0000000000000000	   0.0000000000000000	  -0.1949141386613341	  -4.8919251780025084	   0.0000000000000000	
   0.4836347727707411	  -0.1426768316190828	   0.0000000000000000	   0.0000000000000000	   0.0000000000000000	  -0.2012156679718910	  -5.6956284498355911	   0.0000000000000000	
   0.4887285185310419	  -0.1105161866095947	   0.0000000000000000	   0.0000000000000000	   0.0000000000000000	  -0.2079989561037612	  -6.4717540379509417	   0.0000000000000000	
   0.4938441702975762	  -0.0782172325200694	   0.0000000000000000	   0.0000000000000000	   0.0000000000000000	  -0.2155104056526614	  -7.1793169862907131	   0.0000000000000000	
   0.4989598220641104	  -0.0459182784305442	   0.0000000000000000	   0.0000000000000000	   0.0000000000000000	  -0.2238741062931904	  -7.7765390944577657	   0.0000000000000000	
   0.5040535678244112	  -0.0137576334210561	   0.0000000000000000	   0.0000000000000000	   0.0000000000000000	  -0.2331544407030566	  -8.2237462876172813	   0.0000000000000000	
   0.5091035953771269	   0.0181269856890724	   0.0000000000000000	   0.0000000000000000	   0.0000000000000000	  -0.2433840256548473	  -8.4862190966039108	   0.0000000000000000	
   0.5140882797289823	   0.0495990440657958	   0.0000000000000000	   0.0000000000000000	   0.0000000000000000	  -0.2545730120334249	  -8.5373108273476088	   0.0000000000000000	
   0.5189862756963203	   0.0805237735234670	   0.0000000000000000	   0.0000000000000000	   0.0000000000000000	  -0.2667104335501858	  -8.3619769792687020	   0.0000000000000000	
   0.5237766093084546	   0.1107687496228968	   0.0000000000000000	   0.0000000000000000	   0.0000000000000000	  -0.2797630739508455	  -7.9603850538990857	   0.0000000000000000	
   0.5284387676214327	   0.1402044587331349	   0.0000000000000000	   0.0000000000000000	   0.0000000000000000	  -0.2936742659424127	  -7.3506515021516776	   0.0000000000000000	
   0.5329527865576108	   0.1687048526287186	   0.0000000000000000	   0.0000000000000000	   0.0000000000000000	  -0.3083635154067121	  -6.5694036700832692	   0.0000000000000000	
   0.5372993363948996	   0.1961478882475272	   0.0000000000000000	   0.0000000000000000	   0.0000000000000000	  -0.3237269688530631	  -5.6690693961990410	   0.0000000000000000	
   0.5414598045396010	   0.2224160502979091	   0.0000000000000000	   0.0000000000000000	   0.0000000000000000	  -0.3396380876453934	  -4.7117237704518420	   0.0000000000000000	
   0.5454163752283929	   0.2473968544772032	   0.0000000000000000	   0.0000000000000000	   0.0000000000000000	  -0.3559474914033741	  -3.7606068867055855	   0.0000000000000000	
   0.5491521058181622	   0.2709833291467909	   0.0000000000000000	   0.0000000000000000	   0.0000000000000000	  -0.3724810733658105	  -2.8714686469800981	   0.0000000000000000	
   0.5526509993370036	   0.2930744734010755	   0.0000000000000000	   0.0000000000000000	   0.0000000000000000	  -0.3890364316069243	  -2.0860474216295430	   0.0000000000000000	
   0.5558980729857095	   0.3135756895688661	   0.0000000000000000	   0.0000000000000000	   0.0000000000000000	  -0.4053792943598826	  -1.4291554407488556	   0.0000000000000000	
   0.5588794222964163	   0.3323991882951283	   0.0000000000000000	   0.0000000000000000	   0.0000000000000000	  -0.4212432203935991	  -0.9094620063776706	   0.0000000000000000	
   0.5615822806736706	   0.3494643644684801	   0.0000000000000000	   0.0000000000000000	   0.0000000000000000	  -0.4363362399542918	  -0.5228226345254656	   0.0000000000000000	
   0.5639950740629506	   0.3646981423846534	   0.0000000000000000	   0.0000000000000000	   0.0000000000000000	  -0.4503563300080820	  -0.2564451822377446	   0.0000000000000000	
   0.5661074705125445	   0.3780352886678796	   0.0000000000000000	   0.0000000000000000	   0.0000000000000000	  -0.4630139291988496	  -0.0922875019789934	   0.0000000000000000	
   0.5679104244165543	   0.3894186916102174	   0.0000000000000000	   0.0000000000000000	   0.0000000000000000	  -0.4740558139498982	  -0.0089435239835982	   0.0000000000000000	
   0.5693962152495684	   0.3987996057326562	   0.0000000000000000	   0.0000000000000000	   0.0000000000000000	  -0.4832829344002618	   0.0178105039589948	   0.0000000000000000	
   0.5705584806271371	   0.4061378605207395	   0.0000000000000000	   0.0000000000000000	   0.0000000000000000	  -0.4905566638704421	   0.0138919116901035	   0.0000000000000000	
   0.5713922435504795	   0.4114020324408754	   0.0000000000000000	   0.0000000000000000	   0.0000000000000000	  -0.4957926870005367	   0.0034702575236371	   0.0000000000000000	
   0.5718939337187561	   0.4145695795007315	   0.0000000000000000	   0.0000000000000000	   0.0000000000000000	  -0.4989468712771343	  -0.0001503138106570	   0.0000000000000000	
   0.5720614028176456	   0.4156269377775068	   0.0000000000000000	   0.0000000000000000	   0.0000000000000000	  -0.5000000000000000	   0.0000000000000000	   0.0000000000000000	
   0.4145695795007315	  -0.5718939337187561	   0.0000000000000000	   0.0000000000000000	   0.0000000000000000	   0.5000000000000000	  -0.0001148315461120	   0.0000000000000000	
   0.4147370485996210	  -0.5708365754419809	   0.0122082264199123	  -0.0000001601405394	   0.0000001602402045	   0.4960313510051693	  -0.0003331067195589	  -0.0000000001085978	
   0.4152387387678976	  -0.5676690283821247	   0.0137627933983230	  -0.0000024032121669	   0.0000005246010360	   0.4841439591285132	  -0.0018933945818177	  -0.0000000013413840	
   0.4160725016912399	  -0.5624048564619889	   0.0162855265759210	  -0.0000064033511147	   0.0000002915586533	   0.4644022355755831	  -0.0048182623109975	  -0.0000000036597738	
   0.4172347670688087	  -0.5550666016739055	   0.0196534060296726	  -0.0000068212767933	  -0.0000002092200258	   0.4369426712101919	  -0.0049417660810800	  -0.0000000039094282	
   0.4187205579018228	  -0.5456856875514667	   0.0236630799984756	   0.0000011813646391	  -0.0000006599132929	   0.4020151147224420	   0.0021746623734886	   0.0000000004212727	
   0.4205235118058325	  -0.5343022846091289	   0.0280446391989112	   0.0000177508114733	  -0.0000008521260045	   0.3600368650017878	   0.0167415923403176	   0.0000000094742193	
   0.4226359082554265	  -0.5209651383259029	   0.0324829455890266	   0.0000378349430811	  -0.0000007228952981	   0.3116591484312827	   0.0342336257699375	   0.0000000204535306	
   0.4250487016447064	  -0.5057313604097294	   0.0366397935974570	   0.0000521546080883	  -0.0000002642934337	   0.2578456543348218	   0.0461239910218158	   0.0000000284085726	
   0.4277515600219607	  -0.4886661842363777	   0.0401767547247356	   0.0000484462197648	   0.0000004947286034	   0.1999548108571279	   0.0411068720363860	   0.0000000267121821	
   0.4307329093326676	  -0.4698426855101155	   0.0427817631971364	   0.0000123909088192	   0.0000015271071306	   0.1397999101836385	   0.0059310327606418	   0.0000000077033318	
   0.4339799829813735	  -0.4493414693423249	   0.0441998936769475	  -0.0000713724589657	   0.0000027855938743	   0.0796410687456293	  -0.0736065991297565	  -0.0000000368902548	
   0.4374788765002148	  -0.4272503250880402	   0.0442643649345817	  -0.0002176867775269	   0.0000042037714577	   0.0220543652991590	  -0.2112456152171463	  -0.0000001150194729	
   0.4412146070899841	  -0.4036638504184525	   0.0429193489799896	  -0.0004388476862136	   0.0000056909037799	  -0.0303578397577048	  -0.4183736329366179	  -0.0000002332991917	
   0.4451711777787760	  -0.3786830462391584	   0.0402268523467272	  -0.0007431330649748	   0.0000071669565382	  -0.0753947647949732	  -0.7026816847783064	  -0.0000003961565216	
   0.4493316459234775	  -0.3524148841887765	   0.0363557658918507	  -0.0011348510859641	   0.0000085842411648	  -0.1117154849721742	  -1.0681701834620134	  -0.0000006059119501	
   0.4536781957607662	  -0.3249718485699681	   0.0315584442302505	  -0.0016156665543033	   0.0000099339951235	  -0.1391468677193913	  -1.5163435871710855	  -0.0000008634587350	
   0.4581922146969443	  -0.2964714546743843	   0.0261436313528156	  -0.0021856252042584	   0.0000112120736319	  -0.1586753470164409	  -2.0471192168338286	  -0.0000011688512368	
   0.4628543730099224	  -0.2670357455641463	   0.0204531275278396	  -0.0028424515424380	   0.0000123847624698	  -0.1720941367223862	  -2.6581763612622415	  -0.0000015209040578	
   0.4676447066220567	  -0.2367907694647163	   0.0148452963071336	  -0.0035791220832080	   0.0000133690146187	  -0.1814616718491429	  -3.3427306763985811	  -0.0000019159033916	
   0.4725427025893947	  -0.2058660400070452	   0.0096833887481218	  -0.0043810734920314	   0.0000140452525482	  -0.1886157087063391	  -4.0869917817176855	  -0.0000023460876075	
   0.4775273869412501	  -0.1743939816303218	   0.0053230140203815	  -0.0052245593859952	   0.0000142836528465	  -0.1949141228776719	  -4.8686933481374197	  -0.0000027987628863	
   0.4825774144939658	  -0.1425093625201933	   0.0020930064962693	  -0.0060769291718399	   0.0000139726702616	  -0.2012153758745963	  -5.6573964907483214	  -0.0000032564413688	
   0.4876711602542666	  -0.1103487175107052	   0.0002679349374562	  -0.0068986329943357	   0.0000130355565352	  -0.2079985141689303	  -6.4163871834573492	  -0.0000036979079581	
   0.4927868120208009	  -0.0780497634211800	   0.0000353270729734	  -0.0076462133904681	   0.0000114341971043	  -0.2155098709969547	  -7.1054609918033993	  -0.0000040998295252	
   0.4979024637873352	  -0.0457508093316547	   0.0014636247743078	  -0.0082755152732649	   0.0000091660918002	  -0.2238735001301561	  -7.6839071529929477	  -0.0000044384654359	
   0.5029962095476359	  -0.0135901643221666	   0.0044768386758050	  -0.0087447522094326	   0.0000062601855444	  -0.2331537690338954	  -8.1133313200335877	  -0.0000046913316353	
   0.5080462371003516	   0.0182944547879619	   0.0088409594205874	  -0.0090175116897827	   0.0000027819330181	  -0.2433832895271734	  -8.3604296152024471	  -0.0000048387962030	
   0.5130309214522071	   0.0497665131646853	   0.0141663984293080	  -0.0090660289456342	  -0.0000011572013487	  -0.2545722118244191	  -8.3999751169769254	  -0.0000048658697211	
   0.5179289174195451	   0.0806912426223564	   0.0199307540929201	  -0.0088748768509736	  -0.0000053829680621	  -0.2667095703882482	  -8.2181954371204640	  -0.0000047641641315	
   0.5227192510316794	   0.1109362187217863	   0.0255247805929629	  -0.0084447186108683	  -0.0000096538662177	  -0.2797621497951163	  -7.8161582750112748	  -0.0000045339593855	
   0.5273814093446574	   0.1403719278320243	   0.0303206299714072	  -0.0077951228126374	  -0.0000136678898179	  -0.2936732829526987	  -7.2123110878473966	  -0.0000041856860464	
   0.5318954282808356	   0.1688723217276080	   0.0337540986550035	  -0.0069650833154157	  -0.0000171011443287	  -0.3083624749871937	  -6.4428700438695472	  -0.0000037402702173	
   0.5362419781181242	   0.1963153573464166	   0.0354051151996125	  -0.0060101109032942	  -0.0000196576819917	  -0.3237258708482136	  -5.5591199013336441	  -0.0000032275173475	
   0.5404024462628257	   0.2225835193967985	   0.0350564499501510	  -0.0049957368343391	  -0.0000211354012667	  -0.3396369303566862	  -4.6214039202279000	  -0.0000026826890414	
   0.5443590169516177	   0.2475643235760926	   0.0327147102562736	  -0.0039886048490418	  -0.0000214625864531	  -0.3559462731359771	  -3.6909947022659186	  -0.0000021416223240	
   0.5480947475413869	   0.2711507982456803	   0.0285886697641872	  -0.0030474078970811	  -0.0000207153950534	  -0.3724797959030938	  -2.8217820636717272	  -0.0000016359376436	
   0.5515936410602282	   0.2932419424999650	   0.0230344141484733	  -0.0022160705203632	  -0.0000190790038057	  -0.3890351052333332	  -2.0540993745484237	  -0.0000011892488755	
   0.5548407147089341	   0.3137431586677556	   0.0164858723787474	  -0.0015207087173591	  -0.0000168039107852	  -0.4053779429675977	  -1.4119098225385911	  -0.0000008156532582	
   0.5578220640196410	   0.3325666573940178	   0.0093908648418913	  -0.0009704497264495	  -0.0000141309177797	  -0.4212418842972056	  -0.9036135040519770	  -0.0000005200175263	
   0.5605249223968953	   0.3496318335673696	   0.0021653923815722	  -0.0005609117013207	  -0.0000112646959313	  -0.4363349739902873	  -0.5251476128488410	  -0.0000003000424947	
   0.5629377157861752	   0.3648656114835429	  -0.0048299920456959	  -0.0002785433071662	  -0.0000083387462914	  -0.4503551957495641	  -0.2640158321872108	  -0.0000001483804851	
   0.5650501122357692	   0.3782027577667690	  -0.0112971632137104	  -0.0001041711565121	  -0.0000054705691616	  -0.4630129824337246	  -0.1024042777068968	  -0.0000000548291050	
   0.5668530661397790	   0.3895861607091068	  -0.0169991444059056	  -0.0000149642485062	  -0.0000027853021694	  -0.4740550910009102	  -0.0191128236553301	  -0.0000000070428327	
   0.5683388569727931	   0.3989670748315456	  -0.0217606864045029	   0.0000148820822241	  -0.0000005619822754	  -0.4832824422028693	   0.0099259931050547	   0.0000000086715243	
   0.5695011223503619	   0.4063053296196290	  -0.0254738419662644	   0.0000128192006764	   0.0000008390461255	  -0.4905563779651546	   0.0099598532912994	   0.0000000072699800	
   0.5703348852737042	   0.4115695015397649	  -0.0281048171733828	   0.0000036247710736	   0.0000009940577215	  -0.4957925584963860	   0.0034043531384412	   0.0000000019087945	
   0.5708365754419809	   0.4147370485996210	  -0.0296764402445617	   0.0000000818232548	   0.0000000820262384	  -0.4989468390817896	   0.0004744853870726	   0.0000000000753501	
   0.5710040445408703	   0.4157944068763962	   0.0000000000000000	   0.0000000000000000	   0.0000000000000000	  -0.5000000000000000	  -0.0001498811516123	   0.0000000000000000	
   0.4114020324408754	  -0.5713922435504795	   0.0000000000000000	   0.0000000000000000	   0.0000000000000000	   0.5000000000000000	  -0.0026527334898205	   0.0000000000000000	
   0.4115695015397649	  -0.5703348852737042	   0.0124549910272637	  -0.0000005241734217	   0.0000024027774461	   0.4960302204678111	  -0.0018927207922121	  -0.0000000013411384	
   0.4120711917080415	  -0.5671673382138481	   0.0140065875035039	  -0.0000054166198819	   0.0000054189640234	   0.4841394409238434	  -0.0003975424378290	  -0.0000000152836432	
   0.4129049546313839	  -0.5619031662937122	   0.0165195020019806	  -0.0000140627005934	   0.0000031261192999	   0.4643920899145766	   0.0004533191146700	  -0.0000000403655503	
   0.4140672200089526	  -0.5545649115056289	   0.0198684638892689	  -0.0000121707814154	  -0.0000033385017490	   0.4369246955459483	   0.0019526529990846	  -0.0000000395923968	
   0.4155530108419667	  -0.5451839973831901	   0.0238549247286997	   0.0000160441926712	  -0.0000094740818647	   0.4019871093333453	   0.0071573659977085	   0.0000000241281888	
   0.4173559647459765	  -0.5338005944408523	   0.0282130919438739	   0.0000717339489106	  -0.0000120722134428	   0.3599965237888084	   0.0166645462277191	   0.0000001530566597	
   0.4194683611955704	  -0.5204634481576262	   0.0326300263118228	   0.0001365601869759	  -0.0000098161195486	   0.3116039995928720	   0.0268378246141235	   0.0000003061674509	
   0.4218811545848504	  -0.5052296702414528	   0.0367683573503832	   0.0001754580110114	  -0.0000025440568743	   0.2577732471143507	   0.0300967045920187	   0.0000004066564125	
   0.4245840129621047	  -0.4881644940681011	   0.0402900967826543	   0.0001412254839633	   0.0000094357172932	   0.1998632818034739	   0.0159658816559573	   0.0000003517724316	
   0.4275653622728116	  -0.4693409953418389	   0.0428835865321995	  -0.0000215924797893	   0.0000256596013780	   0.1396888999664406	  -0.0279848345880654	   0.0000000212915468	
   0.4308124359215174	  -0.4488397791740483	   0.0442942911795728	  -0.0003725955640901	   0.0000454420723561	   0.0795127628653822	  -0.1151286139905474	  -0.0000007140029008	
   0.4343113294403588	  -0.4267486349197636	   0.0443555274262943	  -0.0009694240299547	   0.0000677126464324	   0.0219142602088445	  -0.2584221456529471	  -0.0000019789301809	
   0.4380470600301281	  -0.4031621602501759	   0.0430112311652133	  -0.0018599995582753	   0.0000910939431492	  -0.0305009460127670	  -0.4686933827711536	  -0.0000038771725798	
   0.4420036307189200	  -0.3781813560708818	   0.0403230437201192	  -0.0030767790619667	   0.0001143070671774	  -0.0755299911561842	  -0.7533535752413055	  -0.0000064787136660	
   0.4461640988636215	  -0.3519131940204999	   0.0364596215500151	  -0.0046366467957432	   0.0001366043502833	  -0.1118322994181158	  -1.1162628668176209	  -0.0000098200162092	
   0.4505106487009101	  -0.3244701584016915	   0.0316730866534902	  -0.0065455602513575	   0.0001577871604350	  -0.1392379451749655	  -1.5586080735223882	  -0.0000139144634264	
   0.4550246676370883	  -0.2959697645061077	   0.0262714717420404	  -0.0088021371170742	   0.0001777549361727	  -0.1587384668889772	  -2.0795737088386503	  -0.0000187606006118	
   0.4596868259500663	  -0.2665340553958697	   0.0205949348125534	  -0.0113948322543021	   0.0001959263575339	  -0.1721320735626054	  -2.6756837430244169	  -0.0000243360405173	
   0.4644771595622006	  -0.2362890792964397	   0.0149992620407111	  -0.0142927691780598	   0.0002109888794341	  -0.1814802581066115	  -3.3388305189926286	  -0.0000305774226823	
   0.4693751555295386	  -0.2053643498387686	   0.0098446386056733	  -0.0174353910431635	   0.0002210646234346	  -0.1886213252921497	  -4.0541141192522758	  -0.0000373574636477	
   0.4743598398813941	  -0.1738922914620452	   0.0054837404548302	  -0.0207267151125928	   0.0002241533336239	  -0.1949119079593226	  -4.7987579720135827	  -0.0000444719303272	
   0.4794098674341097	  -0.1420076723519167	   0.0022430952097696	  -0.0240370400848485	   0.0002185509126831	  -0.2012086277713894	  -5.5426885195997730	  -0.0000516426933879	
   0.4845036131944105	  -0.1098470273424286	   0.0003958104348895	  -0.0272112355562367	   0.0002031182195981	  -0.2079889652784766	  -6.2505587063533099	  -0.0000585352117547	
   0.4896192649609448	  -0.0775480732529033	   0.0001287806222214	  -0.0300806481328313	   0.0001773225484742	  -0.2154982632347465	  -6.8845085346371953	  -0.0000647840284638	
   0.4947349167274791	  -0.0452491191633781	   0.0015105032913820	  -0.0324756538755260	   0.0001411901041481	  -0.2238600830779335	  -7.4070174456545192	  -0.0000700198826399	
   0.4998286624877799	  -0.0130884741538900	   0.0044656434949828	  -0.0342374771334902	   0.0000952375061787	  -0.2331386102433395	  -7.7835261935665034	  -0.0000738954069373	
   0.5048786900404956	   0.0187961449562385	   0.0087614782244826	  -0.0352296326604423	   0.0000405409293946	  -0.2433664328712190	  -7.9849440144475228	  -0.0000761101265382	
   0.5098633743923510	   0.0502682033329619	   0.0140105296856115	  -0.0353502275908590	  -0.0000211104998988	  -0.2545537476244237	  -7.9902746635624480	  -0.0000764375380629	
   0.5147613703596889	   0.0811929327906331	   0.0196935504613617	  -0.0345456453095581	  -0.0000869812945960	  -0.2666896598568507	  -7.7894953809768364	  -0.0000747553497956	
   0.5195517039718233	   0.1114379088900629	   0.0252056082491414	  -0.0328242149219687	  -0.0001533076157376	  -0.2797410227092440	  -7.3863273948776911	  -0.0000710760201431	
   0.5242138622848014	   0.1408736180003010	   0.0299241126854289	  -0.0302661107174869	  -0.0002154411297365	  -0.2936512154923204	  -6.8001403219992378	  -0.0000655691479744	
   0.5287278812209795	   0.1693740118958847	   0.0332904755921888	  -0.0270244854342007	  -0.0002684078202534	  -0.3083397532989857	  -6.0659052151388249	  -0.0000585648565033	
   0.5330744310582682	   0.1968170475146933	   0.0348896496208572	  -0.0233137983706720	  -0.0003077143842848	  -0.3237027504630486	  -5.2314642097036952	  -0.0000505287840091	
   0.5372348992029696	   0.2230852095650752	   0.0345078619382993	  -0.0193849503802806	  -0.0003302880942126	  -0.3396136070762605	  -4.3520384557403018	  -0.0000420079658973	
   0.5411914698917616	   0.2480660137443693	   0.0321528778409284	  -0.0154917374192393	  -0.0003350907821430	  -0.3559228824248034	  -3.4830483202554068	  -0.0000335570202418	
   0.5449272004815309	   0.2716524884139569	   0.0280322307059190	  -0.0118570114448964	  -0.0003232917625310	  -0.3724564514115707	  -2.6729221454684242	  -0.0000256636744046	
   0.5484260940003722	   0.2937436326682416	   0.0224988361285704	  -0.0086473552272642	  -0.0002977747580318	  -0.3890119721096403	  -1.9578098221487554	  -0.0000186926133316	
   0.5516731676490780	   0.3142448488360322	   0.0159825006008198	  -0.0059618481248423	  -0.0002623494413512	  -0.4053553221758086	  -1.3592106534313975	  -0.0000128608042425	
   0.5546545169597850	   0.3330683475622944	   0.0089269193166351	  -0.0038351202587826	  -0.0002207741261503	  -0.4212202690029896	  -0.8846644343727758	  -0.0000082439873374	
   0.5573573753370392	   0.3501335237356462	   0.0017447320503926	  -0.0022502450534087	  -0.0001761706779872	  -0.4363150386354319	  -0.5303945740161696	  -0.0000048055148738	
   0.5597701687263192	   0.3653673016518195	  -0.0052060473729390	  -0.0011547216311684	  -0.0001307695459692	  -0.4503376983570263	  -0.2846793799859182	  -0.0000024314359643	
   0.5618825651759132	   0.3787044479350457	  -0.0116294436942538	  -0.0004736140230201	  -0.0000864407348860	  -0.4629985964192144	  -0.1304938951779286	  -0.0000009600239594	
   0.5636855190799229	   0.3900878508773835	  -0.0172914943138466	  -0.0001170172005164	  -0.0000455335376008	  -0.4740442192335187	  -0.0472136645269147	  -0.0000001974894755	
   0.5651713099129371	   0.3994687649998223	  -0.0220217530348463	   0.0000160041955987	  -0.0000121582227839	  -0.4832750848897910	  -0.0116773165779733	   0.0000000740544305	
   0.5663335752905058	   0.4068070197879056	  -0.0257186100995860	   0.0000296717860551	   0.0000078969757679	  -0.4905521124895870	  -0.0009342017269429	   0.0000000833415730	
   0.5671673382138481	   0.4120711917080415	  -0.0283492848018764	   0.0000107325534575	   0.0000107433348736	  -0.4957906398644993	   0.0021590710465637	   0.0000000267822265	
   0.5676690283821247	   0.4152387387678976	  -0.0299217085261605	   0.0000009926848436	   0.0000036227078232	  -0.4989463579733838	   0.0034013457708910	   0.0000000019077337	
   0.5678364974810142	   0.4162960970446729	   0.0000000000000000	   0.0000000000000000	   0.0000000000000000	  -0.5000000000000000	   0.0034691525965904	   0.0000000000000000	
   0.4061378605207395	  -0.5705584806271371	   0.0000000000000000	   0.0000000000000000	   0.0000000000000000	   0.5000000000000000	  -0.0071234139976536	   0.0000000000000000	
   0.4063053296196290	  -0.5695011223503619	   0.0128425905493365	  -0.0000002888710020	   0.0000063905048008	   0.4960253487456550	  -0.0048086425836345	  -0.0000000036522245	
   0.4068070197879056	  -0.5663335752905058	   0.0143940952847896	  -0.0000031049904178	   0.0000140503497277	   0.4841199775092542	   0.0004464956245602	  -0.0000000403015043	
   0.4076407827112480	  -0.5610694033703698	   0.0168986486830211	  -0.0000059276679643	   0.0000059478437893	   0.4643483769840756	   0.0054708282809605	  -0.0000001007781316	
   0.4088030480888167	  -0.5537311485822866	   0.0202261579894979	   0.0000084850047529	  -0.0000172384973561	   0.4368471001785059	   0.0087591091203195	  -0.0000000600832675	
   0.4102888389218308	  -0.5443502344598478	   0.0241812704076262	   0.0000614053900359	  -0.0000403734654450	   0.4018658261779581	   0.0111258678578339	   0.0000002241479889	
   0.4120917928258406	  -0.5329668315175099	   0.0285044412717435	   0.0001527899550540	  -0.0000490711987291	   0.3598212803519331	   0.0130174556763702	   0.0000007597203627	
   0.4142041892754346	  -0.5196296852342839	   0.0328872317568446	   0.0002461024291404	  -0.0000359646379738	   0.3113640834452686	   0.0118712845417661	   0.0000013580860697	
   0.4166169826647145	  -0.5043959073181105	   0.0369946359618470	   0.0002694280786309	   0.0000007054865108	   0.2574585377651557	   0.0015360714827593	   0.0000016542723511	
   0.4193198410419688	  -0.4873307311447587	   0.0404899066229403	   0.0001236104671234	   0.0000600040989947	   0.1994667690460991	  -0.0270723798855937	   0.0000011521546887	
   0.4223011903526757	  -0.4685072324184966	   0.0430623357519040	  -0.0003091775545831	   0.0001398881059298	   0.1392105242877323	  -0.0850005050562150	  -0.0000007336459677	
   0.4255482640013815	  -0.4480060162507059	   0.0444581825593985	  -0.0011561145262450	   0.0002370944471976	   0.0789635832438620	  -0.1842309725901304	  -0.0000046333794289	
   0.4290471575202229	  -0.4259148719964213	   0.0445111881497189	  -0.0025405115909472	   0.0003464772328239	   0.0213192477453172	  -0.3364323724729189	  -0.0000111570898592	
   0.4327828881099922	  -0.4023283973268336	   0.0431651928055554	  -0.0045654321669584	   0.0004613939826622	  -0.0311035217045687	  -0.5514966829412181	  -0.0000208130904275	
   0.4367394587987841	  -0.3773475931475395	   0.0404814464906901	  -0.0073012247274229	   0.0005756023936641	  -0.0760941683544467	  -0.8363466386348123	  -0.0000339466743739	
   0.4408999269434856	  -0.3510794310971576	   0.0366281480622268	  -0.0107842676291086	   0.0006852673070346	  -0.1123147369001784	  -1.1945712655844656	  -0.0000507371304651	
   0.4452464767807742	  -0.3236363954783491	   0.0318567255174528	  -0.0150252226468073	   0.0007890804155861	  -0.1396095031776095	  -1.6268163166355953	  -0.0000712435163695	
   0.4497604957169524	  -0.2951360015827653	   0.0264736305930181	  -0.0200152795276274	   0.0008861328315669	  -0.1589914291023981	  -2.1310616547440189	  -0.0000954399970179	
   0.4544226540299304	  -0.2657002924725274	   0.0208160424335550	  -0.0257196640389693	   0.0009732472373906	  -0.1722790151521886	  -2.7019507103604248	  -0.0001231849835024	
   0.4592129876420648	  -0.2354553163730974	   0.0152354725708179	  -0.0320588223765228	   0.0010438112775370	  -0.1815456344781398	  -3.3292183083703488	  -0.0001541257627642	
   0.4641109836094027	  -0.2045305869154262	   0.0100873162313163	  -0.0388880970391968	   0.0010886799677463	  -0.1886310992508848	  -3.9961700045716486	  -0.0001875923351198	
   0.4690956679612582	  -0.1730585285387028	   0.0057198961065430	  -0.0459878765076221	   0.0010982999961394	  -0.1948864260320849	  -4.6792346954441815	  -0.0002225413934041	