
title="result"
variables="x","y","P","u","v","omega","psi"
zone,j=49, i=49,f=point
   0.0000000000000365	  -0.7071067811865476	   0.0000000000000000	   0.0000000000000000	   0.0000000000000000	   0.5000000000000000	   0.0000000000000000	   0.0000000000000000	
   0.0007569849485487	  -0.7063497962380354	   0.0000000000000000	   0.0000000000000000	   0.0000000000000000	   0.4965568236566974	   0.0001295552687733	   0.0000000000000000	
   0.0030246982683212	  -0.7040820829182626	   0.0000000000000000	   0.0000000000000000	   0.0000000000000000	   0.4862421928189887	   0.0012520001146346	   0.0000000000000000	
   0.0067934292627731	  -0.7003133519238103	   0.0000000000000000	   0.0000000000000000	   0.0000000000000000	   0.4691074233851213	  -0.0061892964419496	   0.0000000000000000	
   0.0120470396472000	  -0.6950597415393829	   0.0000000000000000	   0.0000000000000000	   0.0000000000000000	   0.4452535035025701	  -0.0410450732188229	   0.0000000000000000	
   0.0187630326553869	  -0.6883437485311952	   0.0000000000000000	   0.0000000000000000	   0.0000000000000000	   0.4148576095084250	  -0.1187438660081675	   0.0000000000000000	
   0.0269126493742148	  -0.6801941318123665	   0.0000000000000000	   0.0000000000000000	   0.0000000000000000	   0.3782145986541025	  -0.2454351357539472	   0.0000000000000000	
   0.0364609918937416	  -0.6706457892928388	   0.0000000000000000	   0.0000000000000000	   0.0000000000000000	   0.3357933268832271	  -0.4171210595150267	   0.0000000000000000	
   0.0473671727454106	  -0.6597396084411686	   0.0000000000000000	   0.0000000000000000	   0.0000000000000000	   0.2882994309683828	  -0.6213300268486633	   0.0000000000000000	
   0.0595844899884675	  -0.6475222911981104	   0.0000000000000000	   0.0000000000000000	   0.0000000000000000	   0.2367269842224768	  -0.8405719902139900	   0.0000000000000000	
   0.0730606271948410	  -0.6340461539917355	   0.0000000000000000	   0.0000000000000000	   0.0000000000000000	   0.1823754353308399	  -1.0566936310231756	   0.0000000000000000	
   0.0877378774761191	  -0.6193689037104559	   0.0000000000000000	   0.0000000000000000	   0.0000000000000000	   0.1268094872603012	  -1.2552975288586083	   0.0000000000000000	
   0.1035533905933049	  -0.6035533905932684	   0.0000000000000000	   0.0000000000000000	   0.0000000000000000	   0.0717515725198831	  -1.4291376463797647	   0.0000000000000000	
   0.1204394420911889	  -0.5866673390953827	   0.0000000000000000	   0.0000000000000000	   0.0000000000000000	   0.0189193261768054	  -1.5796983614339242	   0.0000000000000000	
   0.1383237233048634	  -0.5687830578817064	   0.0000000000000000	   0.0000000000000000	   0.0000000000000000	  -0.0301563205592966	  -1.7165161877713877	   0.0000000000000000	
   0.1571296509965266	  -0.5499771301900414	   0.0000000000000000	   0.0000000000000000	   0.0000000000000000	  -0.0742900071156133	  -1.8544191807389716	   0.0000000000000000	
   0.1767766952966643	  -0.5303300858899016	   0.0000000000000000	   0.0000000000000000	   0.0000000000000000	  -0.1127488675647960	  -2.0094764370170703	   0.0000000000000000	
   0.1971807245453141	  -0.5099260566412496	   0.0000000000000000	   0.0000000000000000	   0.0000000000000000	  -0.1452957143927395	  -2.1950147829957181	   0.0000000000000000	
   0.2182543655567498	  -0.4888524156298118	   0.0000000000000000	   0.0000000000000000	   0.0000000000000000	  -0.1721641631353271	  -2.4189493091028025	   0.0000000000000000	
   0.2399073777648761	  -0.4671994034216832	   0.0000000000000000	   0.0000000000000000	   0.0000000000000000	  -0.1939686845057336	  -2.6828744437103285	   0.0000000000000000	
   0.2620470396471871	  -0.4450597415393699	   0.0000000000000000	   0.0000000000000000	   0.0000000000000000	  -0.2115700027755826	  -2.9824240040376542	   0.0000000000000000	
   0.2845785457725598	  -0.4225282354139949	   0.0000000000000000	   0.0000000000000000	   0.0000000000000000	  -0.2259312865721222	  -3.3081208933782755	   0.0000000000000000	
   0.3074054127726658	  -0.3997013684138866	   0.0000000000000000	   0.0000000000000000	   0.0000000000000000	  -0.2379969667259394	  -3.6462210311643881	   0.0000000000000000	
   0.3304298924985660	  -0.3766768886879839	   0.0000000000000000	   0.0000000000000000	   0.0000000000000000	  -0.2486090643488758	  -3.9794787741689555	   0.0000000000000000	
   0.3535533905932920	  -0.3535533905932555	   0.0000000000000000	   0.0000000000000000	   0.0000000000000000	  -0.2584614224431728	  -4.2879739247646329	   0.0000000000000000	
   0.3766768886880180	  -0.3304298924985272	   0.0000000000000000	   0.0000000000000000	   0.0000000000000000	  -0.2680856698437895	  -4.5501910693817811	   0.0000000000000000	
   0.3997013684139183	  -0.3074054127726245	   0.0000000000000000	   0.0000000000000000	   0.0000000000000000	  -0.2778602546929312	  -4.7444826024440188	   0.0000000000000000	
   0.4225282354140242	  -0.2845785457725162	   0.0000000000000000	   0.0000000000000000	   0.0000000000000000	  -0.2880328011504430	  -4.8509571835158063	   0.0000000000000000	
   0.4450597415393969	  -0.2620470396471412	   0.0000000000000000	   0.0000000000000000	   0.0000000000000000	  -0.2987468150863478	  -4.8536949073579319	   0.0000000000000000	
   0.4671994034217080	  -0.2399073777648279	   0.0000000000000000	   0.0000000000000000	   0.0000000000000000	  -0.3100664708265082	  -4.7430388095979330	   0.0000000000000000	
   0.4888524156298342	  -0.2182543655566994	   0.0000000000000000	   0.0000000000000000	   0.0000000000000000	  -0.3219965134263976	  -4.5175539806229681	   0.0000000000000000	
   0.5099260566412700	  -0.1971807245452615	   0.0000000000000000	   0.0000000000000000	   0.0000000000000000	  -0.3344968306503446	  -4.1851683336883916	   0.0000000000000000	
   0.5303300858899197	  -0.1767766952966096	   0.0000000000000000	   0.0000000000000000	   0.0000000000000000	  -0.3474925206440273	  -3.7630571203153300	   0.0000000000000000	
   0.5499771301900575	  -0.1571296509964698	   0.0000000000000000	   0.0000000000000000	   0.0000000000000000	  -0.3608805955760763	  -3.2760747252242592	   0.0000000000000000	
   0.5687830578817207	  -0.1383237233048047	   0.0000000000000000	   0.0000000000000000	   0.0000000000000000	  -0.3745343413673857	  -2.7538999650432006	   0.0000000000000000	
   0.5866673390953951	  -0.1204394420911284	   0.0000000000000000	   0.0000000000000000	   0.0000000000000000	  -0.3883062088612250	  -2.2274456222545611	   0.0000000000000000	
   0.6035533905932792	  -0.1035533905932426	   0.0000000000000000	   0.0000000000000000	   0.0000000000000000	  -0.4020301223577150	  -1.7252868180854382	   0.0000000000000000	
   0.6193689037104649	  -0.0877378774760552	   0.0000000000000000	   0.0000000000000000	   0.0000000000000000	  -0.4155242114039710	  -1.2708324557128350	   0.0000000000000000	
   0.6340461539917430	  -0.0730606271947756	   0.0000000000000000	   0.0000000000000000	   0.0000000000000000	  -0.4285949966643098	  -0.8806672319724661	   0.0000000000000000	
   0.6475222911981164	  -0.0595844899884007	   0.0000000000000000	   0.0000000000000000	   0.0000000000000000	  -0.4410437576897946	  -0.5641224712618432	   0.0000000000000000	
   0.6597396084411735	  -0.0473671727453424	   0.0000000000000000	   0.0000000000000000	   0.0000000000000000	  -0.4526750911312982	  -0.3237516043313939	   0.0000000000000000	
   0.6706457892928425	  -0.0364609918936724	   0.0000000000000000	   0.0000000000000000	   0.0000000000000000	  -0.4633067079026520	  -0.1562470430162744	   0.0000000000000000	
   0.6801941318123693	  -0.0269126493741445	   0.0000000000000000	   0.0000000000000000	   0.0000000000000000	  -0.4727787126416700	  -0.0533180668306458	   0.0000000000000000	
   0.6883437485311972	  -0.0187630326553158	   0.0000000000000000	   0.0000000000000000	   0.0000000000000000	  -0.4809603663609506	  -0.0024416886746226	   0.0000000000000000	
   0.6950597415393840	  -0.0120470396471282	   0.0000000000000000	   0.0000000000000000	   0.0000000000000000	  -0.4877528435306339	   0.0123343270033625	   0.0000000000000000	
   0.7003133519238109	  -0.0067934292627007	   0.0000000000000000	   0.0000000000000000	   0.0000000000000000	  -0.4930876175110212	   0.0085240907289150	   0.0000000000000000	
   0.7040820829182629	  -0.0030246982682485	   0.0000000000000000	   0.0000000000000000	   0.0000000000000000	  -0.4969214148420797	   0.0018232703289258	   0.0000000000000000	
   0.7063497962380354	  -0.0007569849484757	   0.0000000000000000	   0.0000000000000000	   0.0000000000000000	  -0.4992296221418975	  -0.0001453247661422	   0.0000000000000000	
   0.7071067811865476	   0.0000000000000365	   0.0000000000000000	   0.0000000000000000	   0.0000000000000000	  -0.5000000000000000	   0.0000000000000000	   0.0000000000000000	
  -0.0007569849484757	  -0.7063497962380354	   0.0000000000000000	   0.0000000000000000	   0.0000000000000000	   0.5000000000000000	   0.0001294765471757	   0.0000000000000000	
   0.0000000000000365	  -0.7055928112895231	  -0.0493118344969942	   0.0000001134715070	  -0.0000001134467407	   0.4965567852417510	   0.0001433689185872	   0.0000000000947858	
   0.0022677133198090	  -0.7033250979697504	  -0.0482198338064966	   0.0000003941882483	   0.0000001105260908	   0.4862420382052463	  -0.0006340198642404	   0.0000000003492236	
   0.0060364443142609	  -0.6995563669752982	  -0.0465330759531958	  -0.0000085089774665	   0.0000016430921016	   0.4691070673356576	  -0.0098810994527242	  -0.0000000042115683	
   0.0112900546986878	  -0.6943027565908707	  -0.0443227093581353	  -0.0000455481669307	   0.0000036320541811	   0.4452528416980281	  -0.0441775460299749	  -0.0000000241164526	
   0.0180060477068747	  -0.6875867635826831	  -0.0415609668998186	  -0.0001272227718502	   0.0000054946414454	   0.4148565125157639	  -0.1190492550856712	  -0.0000000680733579	
   0.0261556644257026	  -0.6794371468638544	  -0.0381789608587096	  -0.0002605193743366	   0.0000068162161966	   0.3782129189197537	  -0.2413497315037191	  -0.0000001398535642	
   0.0357040069452293	  -0.6698888043443265	  -0.0341303164402825	  -0.0004416399091064	   0.0000074810114590	   0.3357909193559023	  -0.4080228964368220	  -0.0000002372598476	
   0.0466101877968984	  -0.6589826234926565	  -0.0294438784960468	  -0.0006576955987901	   0.0000074705710662	   0.2882961829757621	  -0.6074329830552653	  -0.0000003533745814	
   0.0588275050399553	  -0.6467653062495982	  -0.0242528995468223	  -0.0008903345704498	   0.0000069182576783	   0.2367228476382163	  -0.8228058882664412	  -0.0000004782554933	
   0.0723036422463288	  -0.6332891690432234	  -0.0187995325827639	  -0.0011203704981607	   0.0000060012450853	   0.1823704532519852	  -1.0364327401937097	  -0.0000006016331030	
   0.0869808925276069	  -0.6186119187619437	  -0.0134106736614936	  -0.0013324852790006	   0.0000049583699830	   0.1268038058905946	  -1.2341063806754511	  -0.0000007152524373	
   0.1027964056447927	  -0.6027964056447563	  -0.0084509228384189	  -0.0015188672439452	   0.0000040009902156	   0.0717454292164910	  -1.4084659011251806	  -0.0000008149754596	
   0.1196824571426767	  -0.5859103541468705	  -0.0042610407047749	  -0.0016809210660537	   0.0000033129950622	   0.0189130132218881	  -1.5606601511062093	  -0.0000009015566190	
   0.1375667383563512	  -0.5680260729331943	  -0.0010970886978603	  -0.0018285845247539	   0.0000029882533361	  -0.0301625026179437	  -1.6997085475449261	  -0.0000009803905408	
   0.1563726660480143	  -0.5492201452415291	   0.0009154986968958	  -0.0019774265236552	   0.0000030461427179	  -0.0742957880600472	  -1.8398763673807648	  -0.0000010598403694	
   0.1760197103481520	  -0.5295731009413894	   0.0018004028043739	  -0.0021443724752833	   0.0000034151203979	  -0.1127540313756624	  -1.9967073011218490	  -0.0000011490377084	
   0.1964237395968019	  -0.5091690716927375	   0.0017191470803385	  -0.0023434849158717	   0.0000039847856138	  -0.1453001143339145	  -2.1831531521533742	  -0.0000012555252151	
   0.2174973806082375	  -0.4880954306812996	   0.0009371168151542	  -0.0025831216752613	   0.0000046228203706	  -0.1721677312845907	  -2.4069073059194475	  -0.0000013838168859	
   0.2391503928163639	  -0.4664424184731710	  -0.0002186091782212	  -0.0028649470204620	   0.0000052203083799	  -0.1939714300044512	  -2.6694907867570139	  -0.0000015347926752	
   0.2612900546986749	  -0.4443027565908577	  -0.0013981436133301	  -0.0031842931056245	   0.0000056839417188	  -0.2115719953440744	  -2.9665440400810694	  -0.0000017059706060	
   0.2838215608240476	  -0.4217712504654827	  -0.0022593132051317	  -0.0035310523691379	   0.0000059482300835	  -0.2259326319372102	  -3.2886664572558253	  -0.0000018919167550	
   0.3066484278241535	  -0.3989443834653744	  -0.0024920671805670	  -0.0038905789792289	   0.0000059542880201	  -0.2379977838526256	  -3.6222354322469017	  -0.0000020847959463	
   0.3296729075500538	  -0.3759199037394718	  -0.0018402540945038	  -0.0042445133435968	   0.0000056597302744	  -0.2486094691574551	  -3.9502018452129004	  -0.0000022747466792	
   0.3527964056447798	  -0.3527964056447433	  -0.0001236445960864	  -0.0045716756491747	   0.0000050257445248	  -0.2584615176859709	  -4.2529124471659774	  -0.0000024504217141	
   0.3759199037395058	  -0.3296729075500150	   0.0027403444823790	  -0.0048492245108547	   0.0000040335483522	  -0.2680855398071648	  -4.5092148776127550	  -0.0000025995451739	
   0.3989443834654061	  -0.3066484278241123	   0.0067175163381971	  -0.0050542204905686	   0.0000026785254502	  -0.2778599638914905	  -4.6978960753131149	  -0.0000027098117257	
   0.4217712504655120	  -0.2838215608240041	   0.0116452312098825	  -0.0051656336543313	   0.0000009894154246	  -0.2880323960779479	  -4.7995640297711084	  -0.0000027699021450	
   0.4443027565908847	  -0.2612900546986290	   0.0172332161266048	  -0.0051666907891508	  -0.0000009770650699	  -0.2987463276790048	  -4.7987978418085495	  -0.0000027708057991	
   0.4664424184731957	  -0.2391503928163157	   0.0230818965967679	  -0.0050472926094079	  -0.0000031218625212	  -0.3100659223156326	  -4.6863923350515480	  -0.0000027070583962	
   0.4880954306813220	  -0.2174973806081872	   0.0287198797027397	  -0.0048060715397925	  -0.0000053183623890	  -0.3219959177284994	  -4.4612223894729590	  -0.0000025779142905	
   0.5091690716927577	  -0.1964237395967493	   0.0336583966129692	  -0.0044515761777122	  -0.0000074116084192	  -0.3344961970019499	  -4.1313366437616370	  -0.0000023879213590	
   0.5295731009414075	  -0.1760197103480974	   0.0374543425599610	  -0.0040021281339776	  -0.0000092481821959	  -0.3474918555793286	  -3.7137826858611986	  -0.0000021469160743	
   0.5492201452415453	  -0.1563726660479576	   0.0397701695910281	  -0.0034841460679490	  -0.0000106859437109	  -0.3608799045099945	  -3.2330682886146249	  -0.0000018690543236	
   0.5680260729332084	  -0.1375667383562925	   0.0404172256495300	  -0.0029291201194050	  -0.0000116270413729	  -0.3745336300272232	  -2.7183378376952128	  -0.0000015712623154	
   0.5859103541468829	  -0.1196824571426162	   0.0393736863257442	  -0.0023698144498514	  -0.0000120176397539	  -0.3883054846660197	  -2.1998963912213774	  -0.0000012711144387	
   0.6027964056447669	  -0.1027964056447304	   0.0367742972857652	  -0.0018364970753594	  -0.0000118642963644	  -0.4020293956382928	  -1.7057071698584414	  -0.0000009848937272	
   0.6186119187619528	  -0.0869808925275430	   0.0328778754384768	  -0.0013539522840139	  -0.0000112100356067	  -0.4155234961661578	  -1.2586729506404533	  -0.0000007258889206	
   0.6332891690432307	  -0.0723036422462634	   0.0280224799351127	  -0.0009397307529093	  -0.0000101355612246	  -0.4285943105180555	  -0.8749863580137113	  -0.0000005035607400	
   0.6467653062496043	  -0.0588275050398885	   0.0225804618190989	  -0.0006036880314748	  -0.0000087237235400	  -0.4410431206696820	  -0.5637412194346041	  -0.0000003231740473	
   0.6589826234926612	  -0.0466101877968302	   0.0169210259690401	  -0.0003484803497598	  -0.0000070701966163	  -0.4526745234136245	  -0.3273312027933247	  -0.0000001862045421	
   0.6698888043443303	  -0.0357040069451602	   0.0113844929773709	  -0.0001705163971387	  -0.0000052586036927	  -0.4633062267824048	  -0.1623734423306467	  -0.0000000906912375	
   0.6794371468638571	  -0.0261556644256323	   0.0062649957166643	  -0.0000608888360707	  -0.0000034059471253	  -0.4727783294349910	  -0.0604928632919535	  -0.0000000319297082	
   0.6875867635826849	  -0.0180060477068036	   0.0017977851717442	  -0.0000061747508672	  -0.0000016503095351	  -0.4809600840391240	  -0.0091656830798746	  -0.0000000026655783	
   0.6943027565908718	  -0.0112900546986160	  -0.0018558411014200	   0.0000106207915964	  -0.0000002360495094	  -0.4877526558109311	   0.0074599367101766	   0.0000000061207268	
   0.6995563669752988	  -0.0060364443141885	  -0.0046232521475493	   0.0000080071240788	   0.0000005909358755	  -0.4930875097687925	   0.0063709996774421	   0.0000000045138692	
   0.7033250979697507	  -0.0022677133197363	  -0.0065269844126388	   0.0000020259387902	   0.0000005966485130	  -0.4969213665857534	   0.0020272252921456	   0.0000000010420569	
   0.7055928112895231	   0.0000000000000365	  -0.0076471644315450	   0.0000000141491174	   0.0000000141839947	  -0.4992296100537628	   0.0002566369371641	   0.0000000000245815	
   0.7063497962380354	   0.0007569849485487	   0.0000000000000000	   0.0000000000000000	   0.0000000000000000	  -0.5000000000000000	  -0.0001452311389466	   0.0000000000000000	
  -0.0030246982682485	  -0.7040820829182629	   0.0000000000000000	   0.0000000000000000	   0.0000000000000000	   0.5000000000000000	   0.0012529092304378	   0.0000000000000000	
  -0.0022677133197363	  -0.7033250979697507	  -0.0481616622001945	  -0.0000001099292182	  -0.0000003952202300	   0.4965562122840260	  -0.0006328765494554	   0.0000000003497301	
   0.0000000000000362	  -0.7010573846499779	  -0.0470813651698510	  -0.0000062078023250	   0.0000062115824089	   0.4862397345823274	  -0.0064586997609552	  -0.0000000066218882	
   0.0037687309944881	  -0.6972886536555256	  -0.0453900835605886	  -0.0000504441682683	   0.0000271981631319	   0.4691017827006088	  -0.0199462003588497	  -0.0000000934924899	
   0.0090223413789150	  -0.6920350432710982	  -0.0431628127492841	  -0.0001964613743500	   0.0000564806252564	   0.4452430811436553	  -0.0529868434740371	  -0.0000004075060998	
   0.0157383343871019	  -0.6853190502629105	  -0.0403974330106919	  -0.0005072708132836	   0.0000846587691399	   0.4148404390603518	  -0.1201513868472385	  -0.0000010864670707	
   0.0238879511059298	  -0.6771694335440819	  -0.0370424769460194	  -0.0010143452594694	   0.0001055212097280	   0.3781884307631391	  -0.2301240997622985	  -0.0000021947784373	
   0.0334362936254566	  -0.6676210910245541	  -0.0330596858265516	  -0.0017079070532489	   0.0001163437008965	   0.3357559288751586	  -0.3823898853422283	  -0.0000037063577396	
   0.0443424744771256	  -0.6567149101728840	  -0.0284776291378614	  -0.0025418748387150	   0.0001168937009429	   0.2882490414140901	  -0.5678625614350875	  -0.0000055176489933	
   0.0565597917201826	  -0.6444975929298258	  -0.0234236348415198	  -0.0034473856595835	   0.0001088330302194	   0.2366628159449234	  -0.7718400603691167	  -0.0000074770200606	
   0.0700359289265560	  -0.6310214557234508	  -0.0181293578191826	  -0.0043507888871265	   0.0000950443753456	   0.1822981018106951	  -0.9780180673063968	  -0.0000094241632280	
   0.0847131792078341	  -0.6163442054421713	  -0.0129088860467654	  -0.0051921149143640	   0.0000790582246550	   0.1267212036322703	  -1.1727461553148488	  -0.0000112295375314	
   0.1005286923250199	  -0.6005286923249837	  -0.0081134673319985	  -0.0059396173630479	   0.0000643179320282	   0.0716559881433818	  -1.3484012324707737	  -0.0000128257946886	
   0.1174147438229039	  -0.5836426408270980	  -0.0040724165099687	  -0.0065968432455195	   0.0000536031356639	   0.0188209778090407	  -1.5051434943831909	  -0.0000142223884659	
   0.1352990250365784	  -0.5657583596134217	  -0.0010338304246419	  -0.0072003862238457	   0.0000485160469020	  -0.0302527275970635	  -1.6505233273408726	  -0.0000155005734787	
   0.1541049527282416	  -0.5469524319217567	   0.0008801815735616	  -0.0078089226171900	   0.0000493061923721	  -0.0743802080009658	  -1.7971389770726243	  -0.0000167891240347	
   0.1737519970283793	  -0.5273053876216169	   0.0016923434368826	  -0.0084868377943417	   0.0000549671966417	  -0.1128294303424312	  -1.9590150321855302	  -0.0000182288624797	
   0.1941560262770291	  -0.5069013583729649	   0.0015599651540790	  -0.0092879043455265	   0.0000637250450637	  -0.1453642964277581	  -2.1479717304670447	  -0.0000199370433146	
   0.2152296672884648	  -0.4858277173615271	   0.0007426748828364	  -0.0102441190700433	   0.0000735833120000	  -0.1722196706354003	  -2.3710567857580571	  -0.0000219834764280	
   0.2368826794965911	  -0.4641747051533985	  -0.0004385750033636	  -0.0113615925038120	   0.0000827735033317	  -0.1940112436063078	  -2.6295434580465797	  -0.0000243817108529	
   0.2590223413789021	  -0.4420350432710852	  -0.0016395779534538	  -0.0126217174704092	   0.0000898777524079	  -0.2116006947373235	  -2.9191000300551218	  -0.0000270919525649	
   0.2815538475042748	  -0.4195035371457102	  -0.0025232847521416	  -0.0139845427847026	   0.0000938084530436	  -0.2259517577904850	  -3.2305304556225556	  -0.0000300283089791	
   0.3043807145043808	  -0.3966766701456019	  -0.0027840948769569	  -0.0153923433125143	   0.0000936860905941	  -0.2380090701382638	  -3.5505871733941463	  -0.0000330665996548	
   0.3274051942302810	  -0.3736521904196993	  -0.0021696951028347	  -0.0167729774861852	   0.0000888035029798	  -0.2486146043449432	  -3.8627894130856104	  -0.0000360513399574	
   0.3505286923250071	  -0.3505286923249709	  -0.0005028738909549	  -0.0180435454377845	   0.0000786056797081	  -0.2584619973890866	  -4.1482945987359274	  -0.0000388036159467	
   0.3736521904197330	  -0.3274051942302425	   0.0022968670265308	  -0.0191150592683134	   0.0000627723820433	  -0.2680825912736319	  -4.3870158889398452	  -0.0000411309058872	
   0.3966766701456333	  -0.3043807145043398	   0.0061945028341022	  -0.0198986495925177	   0.0000412921510934	  -0.2778545297750578	  -4.5590484678873224	  -0.0000428405205555	
   0.4195035371457392	  -0.2815538475042316	   0.0110279790576067	  -0.0203134229533576	   0.0000145976620444	  -0.2880251629446970	  -4.6464678980008731	  -0.0000437564407855	
   0.4420350432711119	  -0.2590223413788565	   0.0165092767411054	  -0.0202955453353855	  -0.0000163635964698	  -0.2987377787011447	  -4.6353483539296603	  -0.0000437391489661	
   0.4641747051534230	  -0.2368826794965432	   0.0222426969424252	  -0.0198074799810628	  -0.0000500652574869	  -0.3100563942336146	  -4.5178036505159351	  -0.0000427056630330	
   0.4858277173615492	  -0.2152296672884147	   0.0277622298001985	  -0.0188457364175861	  -0.0000844817337308	  -0.3219856494117959	  -4.2936361628729598	  -0.0000406466821843	
   0.5069013583729849	  -0.1941560262769768	   0.0325854358714622	  -0.0174451783747875	  -0.0001172331709547	  -0.3344853654412701	  -3.9712247548704092	  -0.0000376360768794	
   0.5273053876216347	  -0.1737519970283249	   0.0362758232158635	  -0.0156782188488536	  -0.0001458938412384	  -0.3474806011452548	  -3.5672471317741539	  -0.0000338295153941	
   0.5469524319217725	  -0.1541049527281851	   0.0385017587351729	  -0.0136481702447403	  -0.0001683010182221	  -0.3608683499323969	  -3.1051558509386168	  -0.0000294500623570	
   0.5657583596134357	  -0.1352990250365200	   0.0390790646541944	  -0.0114775100124382	  -0.0001828994215054	  -0.3745218973277298	  -2.6125277663285513	  -0.0000247628835748	
   0.5836426408271101	  -0.1174147438228437	   0.0379883050934618	  -0.0092932633801370	  -0.0001889065746772	  -0.3882937120721636	  -2.1178415073298362	  -0.0000200433083366	
   0.6005286923249942	  -0.1005286923249579	   0.0353645216763347	  -0.0072125552268177	  -0.0001863828711420	  -0.4020177532989713	  -1.6472719417401049	  -0.0000155455024114	
   0.6163442054421799	  -0.0847131792077705	   0.0314649493770630	  -0.0053311590233302	  -0.0001760579481382	  -0.4155121964945028	  -1.2221922577523001	  -0.0000114773455979	
   0.6310214557234580	  -0.0700359289264909	   0.0266249324639074	  -0.0037167801177581	  -0.0001591373510825	  -0.4285836076240658	  -0.8576626656881882	  -0.0000079859948491	
   0.6444975929298316	  -0.0565597917201160	   0.0212134746617720	  -0.0024072063076526	  -0.0001369985381412	  -0.4410332946620050	  -0.5620301946142817	  -0.0000051537230144	
   0.6567149101728885	  -0.0443424744770577	   0.0155963535082294	  -0.0014121137496680	  -0.0001110904196567	  -0.4526658493186632	  -0.3372541097835979	  -0.0000030021853886	
   0.6676210910245575	  -0.0334362936253877	   0.0101100801968002	  -0.0007165783761982	  -0.0000828823739767	  -0.4632989330599656	  -0.1796789717015312	  -0.0000014999224003	
   0.6771694335440843	  -0.0238879511058598	   0.0050441760031320	  -0.0002846936440375	  -0.0000541787326944	  -0.4727725555952246	  -0.0807742121965879	  -0.0000005705134228	
   0.6853190502629121	  -0.0157383343870311	   0.0006271456206340	  -0.0000629070684929	  -0.0000274145521372	  -0.4809558489812170	  -0.0280177916620334	  -0.0000000991645073	
   0.6920350432710991	  -0.0090223413788436	  -0.0029886897024517	   0.0000152757389898	  -0.0000060837336280	  -0.4877498471757023	  -0.0061387865728036	   0.0000000576476583	
   0.6972886536555261	  -0.0037687309944160	  -0.0057403004912623	   0.0000197858026470	   0.0000058665210301	  -0.4930858990170319	   0.0001171324454893	   0.0000000536918288	
   0.7010573846499779	   0.0000000000000362	  -0.0076492804775690	   0.0000066728177117	   0.0000066756646971	  -0.4969206448920188	   0.0016906896956052	   0.0000000159054121	
   0.7033250979697504	   0.0022677133198090	  -0.0087720933211440	   0.0000005963418871	   0.0000020254238251	  -0.4992294292051533	   0.0020264200015012	   0.0000000010418144	
   0.7040820829182626	   0.0030246982683212	   0.0000000000000000	   0.0000000000000000	   0.0000000000000000	  -0.5000000000000000	   0.0018230488455754	   0.0000000000000000	
  -0.0067934292627007	  -0.7003133519238109	   0.0000000000000000	   0.0000000000000000	   0.0000000000000000	   0.5000000000000000	  -0.0061663096784456	   0.0000000000000000	
  -0.0060364443141885	  -0.6995563669752988	  -0.0461738240423172	  -0.0000016400935863	   0.0000084909014447	   0.4965537844661890	  -0.0098703174847343	  -0.0000000042008286	
  -0.0037687309944160	  -0.6972886536555261	  -0.0451370656291868	  -0.0000271852528881	   0.0000504405542428	   0.4862299873750611	  -0.0199669913099384	  -0.0000000934249914	
   0.0000000000000359	  -0.6935199226610738	  -0.0434784999341904	  -0.0001443219212327	   0.0001442917233060	   0.4690795282990194	  -0.0368448968913175	  -0.0000006063881452	
   0.0052536103844628	  -0.6882663122766464	  -0.0412634643258073	  -0.0004676226486789	   0.0002746165179092	   0.4452023151560573	  -0.0672764813903407	  -0.0000021733996306	
   0.0119696033926497	  -0.6815503192684587	  -0.0385150982715561	  -0.0011208257237573	   0.0004055738129788	   0.4147739296508985	  -0.1232010850014703	  -0.0000054393925250	
   0.0201192201114775	  -0.6734007025496300	  -0.0352122240826557	  -0.0021792630560331	   0.0005070420653846	   0.3780878912587210	  -0.2147434456721773	  -0.0000107539596927	
   0.0296675626310043	  -0.6638523600301022	  -0.0313345992973566	  -0.0036372103907325	   0.0005630893023135	   0.3356129975049059	  -0.3448892067035890	  -0.0000180434976447	
   0.0405737434826733	  -0.6529461791784321	  -0.0269152521477057	  -0.0054099103108355	   0.0005705453908060	   0.2880569285378092	  -0.5084766351334039	  -0.0000268472323232	
   0.0527910607257303	  -0.6407288619353738	  -0.0220750251205831	  -0.0073590761756168	   0.0005360105905350	   0.2364182360293280	  -0.6941828271964843	  -0.0000364536703851	
   0.0662671979321038	  -0.6272527247289990	  -0.0170310631139492	  -0.0093307611676562	   0.0004728039242267	   0.1820029879238845	  -0.8880513348575692	  -0.0000460902495042	
   0.0809444482133819	  -0.6125754744477193	  -0.0120780926924956	  -0.0111955097349610	   0.0003977082804496	   0.1263836017945094	  -1.0774519725115483	  -0.0000551198586654	
   0.0967599613305677	  -0.5967599613305319	  -0.0075466720879579	  -0.0128808592449858	   0.0003275198509929	   0.0712895606772577	  -1.2544464786889318	  -0.0000631976807818	
   0.1136460128284517	  -0.5798739098326462	  -0.0037476994985331	  -0.0143880350911482	   0.0002758874661543	   0.0184430387236318	  -1.4177053347007638	  -0.0000703488584712	
   0.1315302940421262	  -0.5619896286189698	  -0.0009161268946355	  -0.0157885589636412	   0.0002509075239314	  -0.0306239111923163	  -1.5724876569066253	  -0.0000769476299382	
   0.1503362217337893	  -0.5431837009273047	   0.0008321284753830	  -0.0172018679499080	   0.0002540287551550	  -0.0747278144684383	  -1.7287628736670515	  -0.0000836032000268	
   0.1699832660339270	  -0.5235366566271650	   0.0015191272212888	  -0.0187610145696101	   0.0002806370219517	  -0.1131397498813703	  -1.8981286275142033	  -0.0000909880028034	
   0.1903872952825769	  -0.5031326273785131	   0.0012962939655986	  -0.0205779635357749	   0.0003222336068552	  -0.1456278855874822	  -2.0905738612564320	  -0.0000996652324522	
   0.2114609362940125	  -0.4820589863670752	   0.0004144948549608	  -0.0227192842170234	   0.0003691856804281	  -0.1724320529776903	  -2.3120726555758591	  -0.0001099699835903	
   0.2331139485021389	  -0.4604059741589466	  -0.0008149197726794	  -0.0251964881594544	   0.0004127991429026	  -0.1941727833913262	  -2.5634641853672981	  -0.0001219639456392	
   0.2552536103844499	  -0.4382663122766333	  -0.0020569428670208	  -0.0279677461601570	   0.0004460911091827	  -0.2117155128258010	  -2.8404357951653125	  -0.0001354463459643	
   0.2777851165098226	  -0.4157348061512583	  -0.0029828288914680	  -0.0309448182880085	   0.0004636381012847	  -0.2260261751332288	  -3.1341140984460583	  -0.0001499890090692	