
title="result"
variables="x","y","P","u","v","omega","psi"
zone,j=49, i=49,f=point
   0.4156269377775068	  -0.5720614028176456	   0.0000000000000000	   0.0000000000000000	   0.0000000000000000	   0.5000000000000000	   0.0000000000000000	   0.0000000000000000	
   0.4157944068763962	  -0.5710040445408703	   0.0000000000000000	   0.0000000000000000	   0.0000000000000000	   0.4961212872697484	  -0.0001235694159416	   0.0000000000000000	
   0.4162960970446729	  -0.5678364974810142	   0.0000000000000000	   0.0000000000000000	   0.0000000000000000	   0.4845031308778490	  -0.0032148208860101	   0.0000000000000000	
   0.4171298599680152	  -0.5625723255608783	   0.0000000000000000	   0.0000000000000000	   0.0000000000000000	   0.4652082473986477	  -0.0086523055459169	   0.0000000000000000	
   0.4182921253455839	  -0.5552340707727950	   0.0000000000000000	   0.0000000000000000	   0.0000000000000000	   0.4383689388297288	  -0.0086968742377243	   0.0000000000000000	
   0.4197779161785981	  -0.5458531566503562	   0.0000000000000000	   0.0000000000000000	   0.0000000000000000	   0.4042261468822358	   0.0036835983062473	   0.0000000000000000	
   0.4215808700826078	  -0.5344697537080183	   0.0000000000000000	   0.0000000000000000	   0.0000000000000000	   0.3631791551661820	   0.0298405133571982	   0.0000000000000000	
   0.4236932665322017	  -0.5211326074247924	   0.0000000000000000	   0.0000000000000000	   0.0000000000000000	   0.3158443709839418	   0.0647922667082720	   0.0000000000000000	
   0.4261060599214817	  -0.5058988295086189	   0.0000000000000000	   0.0000000000000000	   0.0000000000000000	   0.2631233809963819	   0.0982204503171389	   0.0000000000000000	
   0.4288089182987360	  -0.4888336533352672	   0.0000000000000000	   0.0000000000000000	   0.0000000000000000	   0.2062762850262598	   0.1160819673157209	   0.0000000000000000	
   0.4317902676094429	  -0.4700101546090050	   0.0000000000000000	   0.0000000000000000	   0.0000000000000000	   0.1469825827306853	   0.1020932639338151	   0.0000000000000000	
   0.4350373412581487	  -0.4495089384412144	   0.0000000000000000	   0.0000000000000000	   0.0000000000000000	   0.0873515820419009	   0.0393515011506352	   0.0000000000000000	
   0.4385362347769901	  -0.4274177941869297	   0.0000000000000000	   0.0000000000000000	   0.0000000000000000	   0.0298291793959997	  -0.0878062947362562	   0.0000000000000000	
   0.4422719653667594	  -0.4038313195173420	   0.0000000000000000	   0.0000000000000000	   0.0000000000000000	  -0.0230437358140782	  -0.2920685597966286	   0.0000000000000000	
   0.4462285360555514	  -0.3788505153380479	   0.0000000000000000	   0.0000000000000000	   0.0000000000000000	  -0.0690192458376368	  -0.5825007900181594	   0.0000000000000000	
   0.4503890042002528	  -0.3525823532876660	   0.0000000000000000	   0.0000000000000000	   0.0000000000000000	  -0.1065932866190889	  -0.9653522949013082	   0.0000000000000000	
   0.4547355540375415	  -0.3251393176688575	   0.0000000000000000	   0.0000000000000000	   0.0000000000000000	  -0.1353560696635037	  -1.4454392836211354	   0.0000000000000000	
   0.4592495729737196	  -0.2966389237732737	   0.0000000000000000	   0.0000000000000000	   0.0000000000000000	  -0.1560661241325175	  -2.0264378191563965	   0.0000000000000000	
   0.4639117312866977	  -0.2672032146630358	   0.0000000000000000	   0.0000000000000000	   0.0000000000000000	  -0.1703759790964107	  -2.7091661318217093	   0.0000000000000000	
   0.4687020648988320	  -0.2369582385636058	   0.0000000000000000	   0.0000000000000000	   0.0000000000000000	  -0.1803185507717301	  -3.4883171577686705	   0.0000000000000000	
   0.4736000608661700	  -0.2060335091059347	   0.0000000000000000	   0.0000000000000000	   0.0000000000000000	  -0.1877906440477657	  -4.3490992794448493	   0.0000000000000000	
   0.4785847452180254	  -0.1745614507292113	   0.0000000000000000	   0.0000000000000000	   0.0000000000000000	  -0.1942384527195988	  -5.2652807659765353	   0.0000000000000000	
   0.4836347727707411	  -0.1426768316190828	   0.0000000000000000	   0.0000000000000000	   0.0000000000000000	  -0.2005965516394319	  -6.1994971153706704	   0.0000000000000000	
   0.4887285185310419	  -0.1105161866095947	   0.0000000000000000	   0.0000000000000000	   0.0000000000000000	  -0.2073934525927220	  -7.1056829283837502	   0.0000000000000000	
   0.4938441702975762	  -0.0782172325200694	   0.0000000000000000	   0.0000000000000000	   0.0000000000000000	  -0.2149019713503533	  -7.9327975315773260	   0.0000000000000000	
   0.4989598220641104	  -0.0459182784305442	   0.0000000000000000	   0.0000000000000000	   0.0000000000000000	  -0.2232584698610935	  -8.6288906731451771	   0.0000000000000000	
   0.5040535678244112	  -0.0137576334210561	   0.0000000000000000	   0.0000000000000000	   0.0000000000000000	  -0.2325324963723721	  -9.1450125636905852	   0.0000000000000000	
   0.5091035953771269	   0.0181269856890724	   0.0000000000000000	   0.0000000000000000	   0.0000000000000000	  -0.2427587312516160	  -9.4390246458271356	   0.0000000000000000	
   0.5140882797289823	   0.0495990440657958	   0.0000000000000000	   0.0000000000000000	   0.0000000000000000	  -0.2539481828901072	  -9.4796788976881281	   0.0000000000000000	
   0.5189862756963203	   0.0805237735234670	   0.0000000000000000	   0.0000000000000000	   0.0000000000000000	  -0.2660903703950047	  -9.2511010386803818	   0.0000000000000000	
   0.5237766093084546	   0.1107687496228968	   0.0000000000000000	   0.0000000000000000	   0.0000000000000000	  -0.2791525999251857	  -8.7571720673743894	   0.0000000000000000	
   0.5284387676214327	   0.1402044587331349	   0.0000000000000000	   0.0000000000000000	   0.0000000000000000	  -0.2930790255870190	  -8.0244990916982584	   0.0000000000000000	
   0.5329527865576108	   0.1687048526287186	   0.0000000000000000	   0.0000000000000000	   0.0000000000000000	  -0.3077904362135302	  -7.1022744138971108	   0.0000000000000000	
   0.5372993363948996	   0.1961478882475272	   0.0000000000000000	   0.0000000000000000	   0.0000000000000000	  -0.3231846989266395	  -6.0577378054846633	   0.0000000000000000	
   0.5414598045396010	   0.2224160502979091	   0.0000000000000000	   0.0000000000000000	   0.0000000000000000	  -0.3391370868404106	  -4.9673467150045481	   0.0000000000000000	
   0.5454163752283929	   0.2473968544772032	   0.0000000000000000	   0.0000000000000000	   0.0000000000000000	  -0.3554993829753099	  -3.9055307135185977	   0.0000000000000000	
   0.5491521058181622	   0.2709833291467909	   0.0000000000000000	   0.0000000000000000	   0.0000000000000000	  -0.3720969974797926	  -2.9341321309838024	   0.0000000000000000	
   0.5526509993370036	   0.2930744734010755	   0.0000000000000000	   0.0000000000000000	   0.0000000000000000	  -0.3887245608572606	  -2.0954660509725263	   0.0000000000000000	
   0.5558980729857095	   0.3135756895688661	   0.0000000000000000	   0.0000000000000000	   0.0000000000000000	  -0.4051422617321532	  -1.4104490124402087	   0.0000000000000000	
   0.5588794222964163	   0.3323991882951283	   0.0000000000000000	   0.0000000000000000	   0.0000000000000000	  -0.4210766129518795	  -0.8812813474281462	   0.0000000000000000	
   0.5615822806736706	   0.3494643644684801	   0.0000000000000000	   0.0000000000000000	   0.0000000000000000	  -0.4362291097853352	  -0.4967469880715560	   0.0000000000000000	
   0.5639950740629506	   0.3646981423846534	   0.0000000000000000	   0.0000000000000000	   0.0000000000000000	  -0.4502937828216727	  -0.2378482215403319	   0.0000000000000000	
   0.5661074705125445	   0.3780352886678796	   0.0000000000000000	   0.0000000000000000	   0.0000000000000000	  -0.4629807521104586	  -0.0819867249278016	   0.0000000000000000	
   0.5679104244165543	   0.3894186916102174	   0.0000000000000000	   0.0000000000000000	   0.0000000000000000	  -0.4740395641485921	  -0.0050508616399509	   0.0000000000000000	
   0.5693962152495684	   0.3987996057326562	   0.0000000000000000	   0.0000000000000000	   0.0000000000000000	  -0.4832753364800486	   0.0181839281439705	   0.0000000000000000	
   0.5705584806271371	   0.4061378605207395	   0.0000000000000000	   0.0000000000000000	   0.0000000000000000	  -0.4905532214992466	   0.0132765737166115	   0.0000000000000000	
   0.5713922435504795	   0.4114020324408754	   0.0000000000000000	   0.0000000000000000	   0.0000000000000000	  -0.4957913188599365	   0.0031568174961007	   0.0000000000000000	
   0.5718939337187561	   0.4145695795007315	   0.0000000000000000	   0.0000000000000000	   0.0000000000000000	  -0.4989465678978190	  -0.0001614143757806	   0.0000000000000000	
   0.5720614028176456	   0.4156269377775068	   0.0000000000000000	   0.0000000000000000	   0.0000000000000000	  -0.5000000000000000	   0.0000000000000000	   0.0000000000000000	
   0.4145695795007315	  -0.5718939337187561	   0.0000000000000000	   0.0000000000000000	   0.0000000000000000	   0.5000000000000000	  -0.0001237522518591	   0.0000000000000000	
   0.4147370485996210	  -0.5708365754419809	   0.0148623441005927	  -0.0000001876881995	   0.0000001877947389	   0.4961212148399206	  -0.0004055847996665	  -0.0000000001287923	
   0.4152387387678976	  -0.5676690283821247	   0.0164177056332593	  -0.0000029200433219	   0.0000006440063439	   0.4845028411908500	  -0.0023068371262108	  -0.0000000016266093	
   0.4160725016912399	  -0.5624048564619889	   0.0189468817604057	  -0.0000077030188384	   0.0000003311370426	   0.4652075971070977	  -0.0057206051156630	  -0.0000000044168972	
   0.4172347670688087	  -0.5550666016739055	   0.0223333863493148	  -0.0000072890732055	  -0.0000003650558970	   0.4383677913733106	  -0.0049335360228299	  -0.0000000042385819	
   0.4187205579018228	  -0.5456856875514667	   0.0263773526522598	   0.0000055501746909	  -0.0000010403790577	   0.4042243736987318	   0.0066745770245827	   0.0000000026798656	
   0.4205235118058325	  -0.5343022846091289	   0.0308086932531291	   0.0000324007991876	  -0.0000014162966293	   0.3631766278482065	   0.0306587960666110	   0.0000000172747160	
   0.4226359082554265	  -0.5209651383259029	   0.0353098158753910	   0.0000681482886860	  -0.0000013910680305	   0.3158409518581986	   0.0624875516754594	   0.0000000366901074	
   0.4250487016447064	  -0.5057313604097294	   0.0395394309812569	   0.0001019763457997	  -0.0000009432951426	   0.2631189247003178	   0.0922463001008052	   0.0000000551570809	
   0.4277515600219607	  -0.4886661842363777	   0.0431564063011229	   0.0001190500323761	  -0.0000001105965226	   0.2062706624053331	   0.1062816792444118	   0.0000000646507667	
   0.4307329093326676	  -0.4698426855101155	   0.0458459066100369	   0.0001021185262166	   0.0000010572330918	   0.1469757314457352	   0.0886345474166501	   0.0000000559440053	
   0.4339799829813735	  -0.4493414693423249	   0.0473478473046733	   0.0000332433959401	   0.0000024827937378	   0.0873435759087155	   0.0227055116142998	   0.0000000193750199	
   0.4374788765002148	  -0.4272503250880402	   0.0474842426969556	  -0.0001042239957626	   0.0000040764493283	   0.0298202928372037	  -0.1069543644361192	  -0.0000000539627580	
   0.4412146070899841	  -0.4036638504184525	   0.0461792412618918	  -0.0003238038336382	   0.0000057418497118	  -0.0230530035861114	  -0.3129092144708335	  -0.0000001713393872	
   0.4451711777787760	  -0.3786830462391584	   0.0434670921765680	  -0.0006351761267882	   0.0000074138155025	  -0.0690282214022565	  -0.6041841140577197	  -0.0000003379227502	
   0.4493316459234775	  -0.3524148841887765	   0.0394875022298124	  -0.0010449934187727	   0.0000090669220824	  -0.1066012595230593	  -0.9869548687798174	  -0.0000005572955867	
   0.4536781957607662	  -0.3249718485699681	   0.0344715208918676	  -0.0015582986329219	   0.0000107051037690	  -0.1353624811299134	  -1.4658302554274740	  -0.0000008321648636	
   0.4581922146969443	  -0.2964714546743843	   0.0287223061505009	  -0.0021788086277439	   0.0000123171360886	  -0.1560707241217306	  -2.0440753983557154	  -0.0000011645692884	
   0.4628543730099224	  -0.2670357455641463	   0.0225952105998933	  -0.0029070902525146	   0.0000138447153351	  -0.1703788661331245	  -2.7219323779140723	  -0.0000015548589186	
   0.4676447066220567	  -0.2367907694647163	   0.0164807532182682	  -0.0037371203414025	   0.0000151685008271	  -0.1803200744482215	  -3.4934536953340798	  -0.0000019998772943	
   0.4725427025893947	  -0.2058660400070452	   0.0107903041554018	  -0.0046527720301478	   0.0000161266930964	  -0.1877912367500562	  -4.3433029168691597	  -0.0000024910391211	
   0.4775273869412501	  -0.1743939816303218	   0.0059394436793407	  -0.0056258112040240	   0.0000165469834531	  -0.1942384879347347	  -5.2449639222522881	  -0.0000030132624120	
   0.4825774144939658	  -0.1425093625201933	   0.0023226107535427	  -0.0066162963345815	   0.0000162821221367	  -0.2005962823269663	  -6.1611820475407981	  -0.0000035451549553	
   0.4876711602542666	  -0.1103487175107052	   0.0002770005956259	  -0.0075752183250225	   0.0000152319547330	  -0.2073930190171055	  -7.0464640021093112	  -0.0000040604303185	
   0.4927868120208009	  -0.0780497634211800	   0.0000397716241601	  -0.0084484853825735	   0.0000133495101579	  -0.2149014383315842	  -7.8507948712256885	  -0.0000045300370874	
   0.4979024637873352	  -0.0457508093316547	   0.0017064663689693	  -0.0091812426836114	   0.0000106373936898	  -0.2232578622457669	  -8.5236458060985285	  -0.0000049244762214	
   0.5029962095476359	  -0.0135901643221666	   0.0051985551747658	  -0.0097220046283287	   0.0000071424276982	  -0.2325318217357224	  -9.0177789590915367	  -0.0000052160281979	
   0.5080462371003516	   0.0182944547879619	   0.0102466826465281	  -0.0100266643603730	   0.0000029612581308	  -0.2427579913607968	  -9.2929340942439733	  -0.0000053809009241	
   0.5130309214522071	   0.0497665131646853	   0.0163950225233538	  -0.0100627655722325	  -0.0000017481876372	  -0.2539473785347919	  -9.3197217063569706	  -0.0000054015493723	
   0.5179289174195451	   0.0806912426223564	   0.0230318143585765	  -0.0098141748017939	  -0.0000067478690004	  -0.2660895029790543	  -9.0838788493444405	  -0.0000052691775924	
   0.5227192510316794	   0.1109362187217863	   0.0294489803476575	  -0.0092856168312981	  -0.0000117174809514	  -0.2791516715301149	  -8.5903485150779328	  -0.0000049862216087	
   0.5273814093446574	   0.1403719278320243	   0.0349282958829355	  -0.0085057040011099	  -0.0000162700412056	  -0.2930780382626638	  -7.8659823000265838	  -0.0000045679637193	
   0.5318954282808356	   0.1688723217276080	   0.0388419985256296	  -0.0075266922086940	  -0.0000200079007442	  -0.3077893909836900	  -6.9592085054674637	  -0.0000040424597558	
   0.5362419781181242	   0.1963153573464166	   0.0407464811440080	  -0.0064196453840000	  -0.0000225927277698	  -0.3231835950935713	  -5.9355553608787837	  -0.0000034478972621	
   0.5404024462628257	   0.2225835193967985	   0.0404439280266672	  -0.0052651424385785	  -0.0000238278659833	  -0.3391359223323154	  -4.8690966147556640	  -0.0000028276515605	
   0.5443590169516177	   0.2475643235760926	   0.0379942445443743	  -0.0041414983194153	  -0.0000236965894167	  -0.3554981564175551	  -3.8317182502778002	  -0.0000022238648653	
   0.5480947475413869	   0.2711507982456803	   0.0336756816150330	  -0.0031137324537554	  -0.0000223663082745	  -0.3720957121794226	  -2.8830377305167239	  -0.0000016715753925	
   0.5515936410602282	   0.2932419424999650	   0.0279106057569753	  -0.0022263296271363	  -0.0000201235960484	  -0.3887232299491172	  -2.0638569933404942	  -0.0000011947107740	
   0.5548407147089341	   0.3137431586677556	   0.0211818574569318	  -0.0015012955026552	  -0.0000173064823779	  -0.4051409126716901	  -1.3943574572067756	  -0.0000008051533217	
   0.5578220640196410	   0.3325666573940178	   0.0139631518220515	  -0.0009409607061657	  -0.0000142123016623	  -0.4210752889679379	  -0.8767092500078060	  -0.0000005041133977	
   0.5605249223968953	   0.3496318335673696	   0.0066753472415362	  -0.0005335188017379	  -0.0000110699610845	  -0.4362278664049465	  -0.5000526128662851	  -0.0000002852865649	
   0.5629377157861752	   0.3648656114835429	  -0.0003309945504263	  -0.0002589040160444	  -0.0000080090168774	  -0.4502926791963224	  -0.2459243220321930	  -0.0000001378211684	
   0.5650501122357692	   0.3782027577667690	  -0.0067755450549345	  -0.0000931622528732	  -0.0000051270558326	  -0.4629798389822654	  -0.0921383451602529	  -0.0000000489316056	
   0.5668530661397790	   0.3895861607091068	  -0.0124409621394461	  -0.0000106326605636	  -0.0000025171307058	  -0.4740388719646459	  -0.0149096820520713	  -0.0000000047542565	
   0.5683388569727931	   0.3989670748315456	  -0.0171688111196815	   0.0000155217312128	  -0.0000004206339488	  -0.4832748676845079	   0.0107511254167264	   0.0000000089741027	
   0.5695011223503619	   0.4063053296196290	  -0.0208614147326954	   0.0000123536963214	   0.0000008535399460	  -0.4905529499896948	   0.0097132310024315	   0.0000000069844806	
   0.5703348852737042	   0.4115695015397649	  -0.0234859650295856	   0.0000033562582058	   0.0000009381535631	  -0.4957911969571721	   0.0032134566180618	   0.0000000017568340	
   0.5708365754419809	   0.4147370485996210	  -0.0250578449680330	   0.0000000637546080	   0.0000000639802271	  -0.4989465373612288	   0.0004348961212165	   0.0000000000623586	
   0.5710040445408703	   0.4157944068763962	   0.0000000000000000	   0.0000000000000000	   0.0000000000000000	  -0.5000000000000000	  -0.0001609348995217	   0.0000000000000000	
   0.4114020324408754	  -0.5713922435504795	   0.0000000000000000	   0.0000000000000000	   0.0000000000000000	   0.5000000000000000	  -0.0032147771383335	   0.0000000000000000	
   0.4115695015397649	  -0.5703348852737042	   0.0151108701817958	  -0.0000006436421428	   0.0000029197063651	   0.4961201338374921	  -0.0023062181748371	  -0.0000000016264682	
   0.4120711917080415	  -0.5671673382138481	   0.0166633156908251	  -0.0000065391940065	   0.0000065411905784	   0.4844985211063734	  -0.0003972279199459	  -0.0000000185410055	
   0.4129049546313839	  -0.5619031662937122	   0.0191824249469757	  -0.0000161515654986	   0.0000032308858184	   0.4651979027748097	   0.0011000996232720	  -0.0000000476339204	
   0.4140672200089526	  -0.5545649115056289	   0.0225486276641493	  -0.0000093217454062	  -0.0000059579286528	   0.4383506561500420	   0.0042745791097946	  -0.0000000377771736	
   0.4155530108419667	  -0.5451839973831901	   0.0265672873366292	   0.0000380403575639	  -0.0000153792748468	   0.4041978068557065	   0.0138531534075689	   0.0000000670226105	
   0.4173559647459765	  -0.5338005944408523	   0.0309731726845222	   0.0001327476848239	  -0.0000207436320087	   0.3631386288521640	   0.0317698564991507	   0.0000002813135373	
   0.4194683611955704	  -0.5204634481576262	   0.0354514452188148	   0.0002566544376196	  -0.0000200799597058	   0.3157894133158208	   0.0546006974734545	   0.0000005640544358	
   0.4218811545848504	  -0.5052296702414528	   0.0396619033738978	   0.0003691997768297	  -0.0000129905607131	   0.2630516947389212	   0.0736860970727756	   0.0000008261100157	
   0.4245840129621047	  -0.4881644940681011	   0.0432637913135430	   0.0004135264470491	   0.0000001195200046	   0.2061859224462841	   0.0764928616038824	   0.0000009434723836	
   0.4275653622728116	  -0.4693409953418389	   0.0459423615078384	   0.0003229070780970	   0.0000184447658007	   0.1468727453611619	   0.0480906249945060	   0.0000007714061187	
   0.4308124359215174	  -0.4488397791740483	   0.0474374927670703	   0.0000275673970660	   0.0000408514516421	   0.0872236863659150	  -0.0272353654542157	   0.0000001587961335	
   0.4343113294403588	  -0.4267486349197636	   0.0475709970625111	  -0.0005375697954865	   0.0000659078871383	   0.0296878169926341	  -0.1642577298285707	  -0.0000010348656757	
   0.4380470600301281	  -0.4031621602501759	   0.0462668131609181	  -0.0014257253992185	   0.0000921478212571	  -0.0231904898296049	  -0.3751755357741297	  -0.0000029242296275	
   0.4420036307189200	  -0.3781813560708818	   0.0435591962623191	  -0.0026752241662193	   0.0001185041471646	  -0.0691606946521979	  -0.6688596135638438	  -0.0000055915710115	
   0.4461640988636215	  -0.3519131940204999	   0.0395881198689571	  -0.0043121585772912	   0.0001445607153341	  -0.1067182983994185	  -1.0512704818674308	  -0.0000090932071767	
   0.4505106487009101	  -0.3244701584016915	   0.0345847344775526	  -0.0063553348668522	   0.0001702996222831	  -0.1354560169374941	  -1.5263919753723032	  -0.0000134706053648	
   0.4550246676370883	  -0.2959697645061077	   0.0288514868674419	  -0.0088170387318680	   0.0001955011699762	  -0.1561372756567654	  -2.0962856686466496	  -0.0000187524983621	
   0.4596868259500663	  -0.2665340553958697	   0.0227417841322889	  -0.0116959004767415	   0.0002191884417283	  -0.1704200352982038	  -2.7594832582787143	  -0.0000249393749546	
   0.4644771595622006	  -0.2362890792964397	   0.0166430796597147	  -0.0149638117561837	   0.0002394745124551	  -0.1803410524537577	  -3.5081388095941266	  -0.0000319749693237	
   0.4693751555295386	  -0.2053643498387686	   0.0109631164481072	  -0.0185528610473999	   0.0002538180370486	  -0.1877983243430950	  -4.3252888913136704	  -0.0000397173135137	
   0.4743598398813941	  -0.1738922914620452	   0.0061140040457144	  -0.0223484037733834	   0.0002595634523249	  -0.1942370497501691	  -5.1835688818713104	  -0.0000479229612190	
   0.4794098674341097	  -0.1420076723519167	   0.0024874514281022	  -0.0261915210846038	   0.0002544666619217	  -0.2005898892251017	  -6.0460543613769033	  -0.0000562513678963	
   0.4845036131944105	  -0.1098470273424286	   0.0004189459196054	  -0.0298900163006689	   0.0002370487114581	  -0.2073835981430807	  -6.8689668585389354	  -0.0000642880272521	
   0.4896192649609448	  -0.0775480732529033	   0.0001449602522632	  -0.0332343040365817	   0.0002066664372256	  -0.2148898384569551	  -7.6053707008892868	  -0.0000715784488197	
   0.4947349167274791	  -0.0452491191633781	   0.0017612178570220	  -0.0360142733729457	   0.0001634522756426	  -0.2232443839187170	  -8.2089913254128586	  -0.0000776646300742	
   0.4998286624877799	  -0.0130884741538900	   0.0051901249710356	  -0.0380351471318746	   0.0001082250473450	  -0.2325165582494901	  -8.6377151937282992	  -0.0000821195824873	
   0.5048786900404956	   0.0187961449562385	   0.0101640444516847	  -0.0391326470172424	   0.0000425638759024	  -0.2427410052969738	  -8.8568750195145807	  -0.0000845805915209	
   0.5098633743923510	   0.0502682033329619	   0.0162298518280287	  -0.0391889120311360	  -0.0000310092655049	  -0.2539287797558973	  -8.8426078326676336	  -0.0000847843623043	
   0.5147613703596889	   0.0811929327906331	   0.0227796881017289	  -0.0381496456648314	  -0.0001087717144455	  -0.2660694743633312	  -8.5853976114835415	  -0.0000826051273468	
   0.5195517039718233	   0.1114379088900629	   0.0291106399474408	  -0.0360404021795872	  -0.0001857541362765	  -0.2791304639043481	  -8.0933003946731343	  -0.0000780912435427	
   0.5242138622848014	   0.1408736180003010	   0.0345105636066674	  -0.0329769219719460	  -0.0002560264264411	  -0.2930559433940610	  -7.3938174256783800	  -0.0000714889324932	
   0.5287278812209795	   0.1693740118958847	   0.0383579033057794	  -0.0291630909049189	  -0.0003135137221874	  -0.3077667004414230	  -6.5330704980234584	  -0.0000632389655803	
   0.5330744310582682	   0.1968170475146933	   0.0402142181827628	  -0.0248719207384045	  -0.0003531093299446	  -0.3231605578899126	  -5.5714619211944214	  -0.0000539356251329	
   0.5372348992029696	   0.2230852095650752	   0.0398847113228064	  -0.0204103268139998	  -0.0003718470246277	  -0.3391127193579774	  -4.5760189296322471	  -0.0000442496357051	
   0.5411914698917616	   0.2480660137443693	   0.0374294711073163	  -0.0160751323595322	  -0.0003695441423510	  -0.3554749089523939	  -3.6110885357443969	  -0.0000348310591119	
   0.5449272004815309	   0.2716524884139569	   0.0331242242585161	  -0.0121121824228030	  -0.0003487598683818	  -0.3720725316743653	  -2.7297580088467943	  -0.0000262189518218	
   0.5484260940003722	   0.2937436326682416	   0.0273869015616773	  -0.0086896364652958	  -0.0003139240019147	  -0.3887002980520368	  -1.9683377849856232	  -0.0000187820016854	
   0.5516731676490780	   0.3142448488360322	   0.0206952612667844	  -0.0058908599834151	  -0.0002701715811431	  -0.4051185611766278	  -1.3448786282315466	  -0.0000127028866206	
   0.5546545169597850	   0.3330683475622944	   0.0135183863242942	  -0.0037248330643962	  -0.0002221285177403	  -0.4210540395792300	  -0.8613981684530460	  -0.0000080010703758	
   0.5573573753370392	   0.3501335237356462	   0.0062737098252555	  -0.0021466715475553	  -0.0001732792229831	  -0.4362083983130149	  -0.5081239918042926	  -0.0000045784841119	
   0.5597701687263192	   0.3653673016518195	  -0.0006904625671784	  -0.0010793542122955	  -0.0001258022276643	  -0.4502757180877631	  -0.2680763321679211	  -0.0000022673169940	
   0.5618825651759132	   0.3787044479350457	  -0.0070954080373113	  -0.0004299808812469	  -0.0000812415964797	  -0.4629659940275312	  -0.1203910941715487	  -0.0000008663314449	
   0.5636855190799229	   0.3900878508773835	  -0.0127259944020729	  -0.0000981094057931	  -0.0000414516545193	  -0.4740284729154168	  -0.0422222042335961	  -0.0000001584906841	
   0.5651713099129371	   0.3994687649998223	  -0.0174274611133683	   0.0000208921741101	  -0.0000099133296923	  -0.4832678614041446	  -0.0096904451315338	   0.0000000824122383	
   0.5663335752905058	   0.4068070197879056	  -0.0211070653615475	   0.0000296105572190	   0.0000083673183740	  -0.4905488984636098	  -0.0002612312407568	   0.0000000816046436	
   0.5671673382138481	   0.4120711917080415	  -0.0237321469481482	   0.0000103062199515	   0.0000103178097906	  -0.4957893764634295	   0.0022924645913783	   0.0000000252981046	
   0.5676690283821247	   0.4152387387678976	  -0.0253048328177528	   0.0000009366939496	   0.0000033540505940	  -0.4989460809643514	   0.0032102100608423	   0.0000000017557224	
   0.5678364974810142	   0.4162960970446729	   0.0000000000000000	   0.0000000000000000	   0.0000000000000000	  -0.5000000000000000	   0.0031556701136871	   0.0000000000000000	
   0.4061378605207395	  -0.5705584806271371	   0.0000000000000000	   0.0000000000000000	   0.0000000000000000	   0.5000000000000000	  -0.0086391690435212	   0.0000000000000000	
   0.4063053296196290	  -0.5695011223503619	   0.0154981185077675	  -0.0000003283717411	   0.0000076906502210	   0.4961154766640707	  -0.0057105049337285	  -0.0000000044098376	
   0.4068070197879056	  -0.5663335752905058	   0.0170509109739989	  -0.0000032056878765	   0.0000161354011613	   0.4844799182939877	   0.0010969566099702	  -0.0000000475659892	
   0.4076407827112480	  -0.5610694033703698	   0.0195618320834626	  -0.0000030958071509	   0.0000031326005695	   0.4651561580267183	   0.0081581856030160	  -0.0000001084476060	
   0.4088030480888167	  -0.5537311485822866	   0.0229055536415735	   0.0000270501053292	  -0.0000315625062055	   0.4382767158067605	   0.0140876906504749	  -0.0000000053369540	
   0.4102888389218308	  -0.5443502344598478	   0.0268906270482402	   0.0001229346974001	  -0.0000690780011203	   0.4040826933608523	   0.0206632269359998	   0.0000004854017329	
   0.4120917928258406	  -0.5329668315175099	   0.0312589304480963	   0.0002957563896343	  -0.0000903211938788	   0.3629732182509225	   0.0294859088822980	   0.0000014298810621	
   0.4142041892754346	  -0.5196296852342839	   0.0357010137421616	   0.0005103164430491	  -0.0000846318317351	   0.3155643224818322	   0.0384429329767476	   0.0000026434856601	
   0.4166169826647145	  -0.5043959073181105	   0.0398795538521284	   0.0006843586048302	  -0.0000488509343364	   0.2627578505888636	   0.0407452848655269	   0.0000037058672723	
   0.4193198410419688	  -0.4873307311447587	   0.0434550685286201	   0.0006991915144794	   0.0000158279797878	   0.2058163608373104	   0.0257011912936744	   0.0000040208902223	
   0.4223011903526757	  -0.4685072324184966	   0.0461133923987656	   0.0004132900829657	   0.0001058763565058	   0.1464257919413840	  -0.0198989810842111	   0.0000028846781319	
   0.4255482640013815	  -0.4480060162507059	   0.0475946411198689	  -0.0003228076880224	   0.0002159783666593	   0.0867069433117030	  -0.1102723270339307	  -0.0000004417184063	
   0.4290471575202229	  -0.4259148719964213	   0.0477206324089366	  -0.0016497297143588	   0.0003392935759609	   0.0291214967136518	  -0.2590439928577542	  -0.0000066497870787	
   0.4327828881099922	  -0.4023283973268336	   0.0464152123266589	  -0.0036837078830078	   0.0004687059827523	  -0.0237729400090165	  -0.4777571294759540	  -0.0000163074854836	
   0.4367394587987841	  -0.3773475931475395	   0.0437127170054082	  -0.0065091107926936	   0.0005988809277185	  -0.0697165143650944	  -0.7749741397269529	  -0.0000298250512077	
   0.4408999269434856	  -0.3510794310971576	   0.0397533278732443	  -0.0101824209199823	   0.0007274420298389	  -0.1072042300131072	  -1.1562575776244068	  -0.0000474800175075	
   0.4452464767807742	  -0.3236363954783491	   0.0347679478932301	  -0.0147408734716571	   0.0008538354299936	  -0.1358395974744014	  -1.6245555626702626	  -0.0000694656670826	
   0.4497604957169524	  -0.2951360015827653	   0.0290574081091464	  -0.0202027626292305	   0.0009764755174005	  -0.1564055651057360	  -2.1799591542488432	  -0.0000958967230631	
   0.4544226540299304	  -0.2657002924725274	   0.0229716358747833	  -0.0265518420149660	   0.0010901741100643	  -0.1705809551703277	  -2.8182052113391367	  -0.0001267330723391	
   0.4592129876420648	  -0.2354553163730974	   0.0168930204650534	  -0.0337102284556255	   0.0011854485998576	  -0.1804166617884015	  -3.5283408663938109	  -0.0001616431460672	
   0.4641109836094027	  -0.2045305869154262	   0.0112236412144139	  -0.0415126478192578	   0.0012499061657554	  -0.1878144315965482	  -4.2907641240839558	  -0.0001998697237863	
   0.4690956679612582	  -0.1730585285387028	   0.0063704779101083	  -0.0496948947382314	   0.0012708734703444	  -0.1942149940618223	  -5.0767861753065064	  -0.0002401629986304	