
title="result"
variables="x","y","P","u","v","omega","psi"
zone,j=49, i=49,f=point
   0.5000000000000517	  -0.4999999999999483	   0.0000000000000000	   0.0000000000000000	   0.0000000000000000	   0.5000000000000000	   0.0000000000000000	   0.0000000000000000	
   0.5000000000000516	  -0.4989294616192501	   0.0000000000000000	   0.0000000000000000	   0.0000000000000000	   0.4963087852214058	  -0.0003658566903389	   0.0000000000000000	
   0.5000000000000513	  -0.4957224306868535	   0.0000000000000000	   0.0000000000000000	   0.0000000000000000	   0.4852527242704797	  -0.0042066125450964	   0.0000000000000000	
   0.5000000000000507	  -0.4903926402015635	   0.0000000000000000	   0.0000000000000000	   0.0000000000000000	   0.4668912763199474	  -0.0001399813274307	   0.0000000000000000	
   0.5000000000000500	  -0.4829629131444825	   0.0000000000000000	   0.0000000000000000	   0.0000000000000000	   0.4413476361876864	   0.0349325963618225	   0.0000000000000000	
   0.5000000000000490	  -0.4734650647475012	   0.0000000000000000	   0.0000000000000000	   0.0000000000000000	   0.4088332529023320	   0.1152234231245850	   0.0000000000000000	
   0.5000000000000477	  -0.4619397662555917	   0.0000000000000000	   0.0000000000000000	   0.0000000000000000	   0.3696651415054770	   0.2379155869418175	   0.0000000000000000	
   0.5000000000000464	  -0.4484363707662925	   0.0000000000000000	   0.0000000000000000	   0.0000000000000000	   0.3242795896218497	   0.3834917484852160	   0.0000000000000000	
   0.5000000000000447	  -0.4330127018921677	   0.0000000000000000	   0.0000000000000000	   0.0000000000000000	   0.2732677936991003	   0.5200699752998518	   0.0000000000000000	
   0.5000000000000430	  -0.4157348061512209	   0.0000000000000000	   0.0000000000000000	   0.0000000000000000	   0.2174692407551173	   0.6106681570593206	   0.0000000000000000	
   0.5000000000000410	  -0.3966766701455659	   0.0000000000000000	   0.0000000000000000	   0.0000000000000000	   0.1581406743548786	   0.6218706785007266	   0.0000000000000000	
   0.5000000000000389	  -0.3759199037394370	   0.0000000000000000	   0.0000000000000000	   0.0000000000000000	   0.0971624807138372	   0.5316730341011232	   0.0000000000000000	
   0.5000000000000365	  -0.3535533905932221	   0.0000000000000000	   0.0000000000000000	   0.0000000000000000	   0.0371573662549890	   0.3331309511927693	   0.0000000000000000	
   0.5000000000000341	  -0.3296729075499828	   0.0000000000000000	   0.0000000000000000	   0.0000000000000000	  -0.0186712566561011	   0.0320318452583859	   0.0000000000000000	
   0.5000000000000315	  -0.3043807145043087	   0.0000000000000000	   0.0000000000000000	   0.0000000000000000	  -0.0671191533049506	  -0.3600350010476528	   0.0000000000000000	
   0.5000000000000288	  -0.2777851165097495	   0.0000000000000000	   0.0000000000000000	   0.0000000000000000	  -0.1058700501578315	  -0.8328866605215534	   0.0000000000000000	
   0.5000000000000259	  -0.2499999999999483	   0.0000000000000000	   0.0000000000000000	   0.0000000000000000	  -0.1342664255706716	  -1.3814631571530125	   0.0000000000000000	
   0.5000000000000229	  -0.2211443451094489	   0.0000000000000000	   0.0000000000000000	   0.0000000000000000	  -0.1534676435930714	  -2.0050406693071965	   0.0000000000000000	
   0.5000000000000198	  -0.1913417161824932	   0.0000000000000000	   0.0000000000000000	   0.0000000000000000	  -0.1658629694827124	  -2.7032794548204371	   0.0000000000000000	
   0.5000000000000167	  -0.1607197326515291	   0.0000000000000000	   0.0000000000000000	   0.0000000000000000	  -0.1741198179474411	  -3.4710087592899339	   0.0000000000000000	
   0.5000000000000134	  -0.1294095225512087	   0.0000000000000000	   0.0000000000000000	   0.0000000000000000	  -0.1804254615322077	  -4.2939046653875019	   0.0000000000000000	
   0.5000000000000101	  -0.0975451610080124	   0.0000000000000000	   0.0000000000000000	   0.0000000000000000	  -0.1862087154487060	  -5.1468160534341214	   0.0000000000000000	
   0.5000000000000068	  -0.0652630961099741	   0.0000000000000000	   0.0000000000000000	   0.0000000000000000	  -0.1922484627735766	  -5.9951717882434874	   0.0000000000000000	
   0.5000000000000033	  -0.0327015646150199	   0.0000000000000000	   0.0000000000000000	   0.0000000000000000	  -0.1989187932456548	  -6.7983434360318595	   0.0000000000000000	
   0.5000000000000000	   0.0000000000000517	   0.0000000000000000	   0.0000000000000000	   0.0000000000000000	  -0.2063935256509232	  -7.5134359775596948	   0.0000000000000000	
   0.4999999999999966	   0.0327015646151233	   0.0000000000000000	   0.0000000000000000	   0.0000000000000000	  -0.2147618172497004	  -8.0984934967594935	   0.0000000000000000	
   0.4999999999999932	   0.0652630961100775	   0.0000000000000000	   0.0000000000000000	   0.0000000000000000	  -0.2240772442971453	  -8.5150476773867876	   0.0000000000000000	
   0.4999999999999899	   0.0975451610081158	   0.0000000000000000	   0.0000000000000000	   0.0000000000000000	  -0.2343731528752646	  -8.7305264654001409	   0.0000000000000000	
   0.4999999999999866	   0.1294095225513120	   0.0000000000000000	   0.0000000000000000	   0.0000000000000000	  -0.2456648116171627	  -8.7211926759780152	   0.0000000000000000	
   0.4999999999999834	   0.1607197326516325	   0.0000000000000000	   0.0000000000000000	   0.0000000000000000	  -0.2579474727392335	  -8.4758110575852079	   0.0000000000000000	
   0.4999999999999802	   0.1913417161825965	   0.0000000000000000	   0.0000000000000000	   0.0000000000000000	  -0.2711937799668351	  -7.9995145218720367	   0.0000000000000000	
   0.4999999999999771	   0.2211443451095523	   0.0000000000000000	   0.0000000000000000	   0.0000000000000000	  -0.2853518919201118	  -7.3165417780528648	   0.0000000000000000	
   0.4999999999999741	   0.2500000000000516	   0.0000000000000000	   0.0000000000000000	   0.0000000000000000	  -0.3003448852817030	  -6.4702537371189361	   0.0000000000000000	
   0.4999999999999713	   0.2777851165098528	   0.0000000000000000	   0.0000000000000000	   0.0000000000000000	  -0.3160713581652058	  -5.5192899732797160	   0.0000000000000000	
   0.4999999999999685	   0.3043807145044120	   0.0000000000000000	   0.0000000000000000	   0.0000000000000000	  -0.3324064341092442	  -4.5300450980354725	   0.0000000000000000	
   0.4999999999999659	   0.3296729075500861	   0.0000000000000000	   0.0000000000000000	   0.0000000000000000	  -0.3492017974343272	  -3.5671365831468016	   0.0000000000000000	
   0.4999999999999634	   0.3535533905933254	   0.0000000000000000	   0.0000000000000000	   0.0000000000000000	  -0.3662834316952612	  -2.6845206021823493	   0.0000000000000000	
   0.4999999999999611	   0.3759199037395403	   0.0000000000000000	   0.0000000000000000	   0.0000000000000000	  -0.3834467942433408	  -1.9196491456512734	   0.0000000000000000	
   0.4999999999999590	   0.3966766701456692	   0.0000000000000000	   0.0000000000000000	   0.0000000000000000	  -0.4004512081223788	  -1.2918255729025223	   0.0000000000000000	
   0.4999999999999570	   0.4157348061513242	   0.0000000000000000	   0.0000000000000000	   0.0000000000000000	  -0.4170174452953767	  -0.8042913217854669	   0.0000000000000000	
   0.4999999999999552	   0.4330127018922710	   0.0000000000000000	   0.0000000000000000	   0.0000000000000000	  -0.4328332861112064	  -0.4484866011221544	   0.0000000000000000	
   0.4999999999999536	   0.4484363707663958	   0.0000000000000000	   0.0000000000000000	   0.0000000000000000	  -0.4475699354939323	  -0.2086096289835957	   0.0000000000000000	
   0.4999999999999522	   0.4619397662556951	   0.0000000000000000	   0.0000000000000000	   0.0000000000000000	  -0.4609076849083437	  -0.0650115245422865	   0.0000000000000000	
   0.4999999999999510	   0.4734650647476045	   0.0000000000000000	   0.0000000000000000	   0.0000000000000000	  -0.4725642194391931	   0.0041423455204706	   0.0000000000000000	
   0.4999999999999500	   0.4829629131445858	   0.0000000000000000	   0.0000000000000000	   0.0000000000000000	  -0.4823165119625130	   0.0225505278612726	   0.0000000000000000	
   0.4999999999999493	   0.4903926402016669	   0.0000000000000000	   0.0000000000000000	   0.0000000000000000	  -0.4900092489389865	   0.0148717036107987	   0.0000000000000000	
   0.4999999999999488	   0.4957224306869569	   0.0000000000000000	   0.0000000000000000	   0.0000000000000000	  -0.4955484964400000	   0.0034787732378371	   0.0000000000000000	
   0.4999999999999484	   0.4989294616193534	   0.0000000000000000	   0.0000000000000000	   0.0000000000000000	  -0.4988856512550398	  -0.0001489292076007	   0.0000000000000000	
   0.4999999999999483	   0.5000000000000517	   0.0000000000000000	   0.0000000000000000	   0.0000000000000000	  -0.5000000000000000	   0.0000000000000000	   0.0000000000000000	
   0.4989294616193534	  -0.4999999999999484	   0.0000000000000000	   0.0000000000000000	   0.0000000000000000	   0.5000000000000000	  -0.0003658467248888	   0.0000000000000000	
   0.4989294616193533	  -0.4989294616192502	   0.0147692644853379	  -0.0000003379098264	   0.0000003379308543	   0.4963087153253550	  -0.0005001121059170	  -0.0000000002399499	
   0.4989294616193530	  -0.4957224306868536	   0.0163545485848632	  -0.0000028980950176	   0.0000003628750168	   0.4852524476604433	  -0.0011423348202647	  -0.0000000017879318	
   0.4989294616193525	  -0.4903926402015636	   0.0189553156814821	   0.0000029517632847	  -0.0000014781282424	   0.4668906784333855	   0.0058029063651790	   0.0000000010168248	
   0.4989294616193517	  -0.4829629131444826	   0.0224342909692297	   0.0000399515352188	  -0.0000037498541108	   0.4413466569948635	   0.0397816460539033	   0.0000000209661684	
   0.4989294616193507	  -0.4734650647475013	   0.0265320508777934	   0.0001233667994291	  -0.0000055295176377	   0.4088318893512673	   0.1153027683349887	   0.0000000660221894	
   0.4989294616193495	  -0.4619397662555918	   0.0309101972067917	   0.0002508862361336	  -0.0000062172624210	   0.3696634024082246	   0.2307920558413092	   0.0000001349856390	
   0.4989294616193481	  -0.4484363707662926	   0.0351983854420501	   0.0004024264724665	  -0.0000057217298626	   0.3242774225325549	   0.3683082074703648	   0.0000002168392522	
   0.4989294616193465	  -0.4330127018921678	   0.0390377700519762	   0.0005446353877014	  -0.0000041114676799	   0.2732650181718366	   0.4973829377927503	   0.0000002936900050	
   0.4989294616193447	  -0.4157348061512210	   0.0421144924134699	   0.0006385418672995	  -0.0000017104754690	   0.2174655248302694	   0.5822213280632517	   0.0000003444877610	
   0.4989294616193428	  -0.3966766701455660	   0.0441815185053690	   0.0006487360896119	   0.0000010880295596	   0.1581355897328990	   0.5900610261937451	   0.0000003502793367	
   0.4989294616193406	  -0.3759199037394371	   0.0450655178443621	   0.0005516864769304	   0.0000038329218638	   0.0971556624923801	   0.4989596871589708	   0.0000002984089245	
   0.4989294616193383	  -0.3535533905932222	   0.0446654576024065	   0.0003396943645371	   0.0000062157397854	   0.0371487586803255	   0.3014608373726842	   0.0000001848489263	
   0.4989294616193358	  -0.3296729075499829	   0.0429536542205392	   0.0000185600724389	   0.0000080971965529	  -0.0186811768430639	   0.0026218483978015	   0.0000000127339784	
   0.4989294616193332	  -0.3043807145043088	   0.0399865413793974	  -0.0003996299040558	   0.0000095524940582	  -0.0671293583855156	  -0.3865776963019534	  -0.0000002113750658	
   0.4989294616193304	  -0.2777851165097496	   0.0359163479725067	  -0.0009040982983407	   0.0000107384059201	  -0.1058792642688589	  -0.8561785844498961	  -0.0000004817172836	
   0.4989294616193276	  -0.2499999999999485	   0.0309872512858156	  -0.0014893401696440	   0.0000118209164038	  -0.1342736288644700	  -1.4009618851179733	  -0.0000007953355409	
   0.4989294616193246	  -0.2211443451094490	   0.0255099406503788	  -0.0021543310631122	   0.0000128723821986	  -0.1534724533432707	  -2.0197306964542419	  -0.0000011517484438	
   0.4989294616193215	  -0.1913417161824933	   0.0198283093621761	  -0.0028983572393364	   0.0000138740056294	  -0.1658656519222496	  -2.7114945679611639	  -0.0000015506164098	
   0.4989294616193183	  -0.1607197326515293	   0.0142949844841939	  -0.0037155190699906	   0.0000147041639908	  -0.1741209891413654	  -3.4703980272574060	  -0.0000019888635776	
   0.4989294616193151	  -0.1294095225512088	   0.0092585185476082	  -0.0045902073850606	   0.0000152021230672	  -0.1804257423224910	  -4.2816064933603784	  -0.0000024581689573	
   0.4989294616193118	  -0.0975451610080126	   0.0050520669867860	  -0.0054954038405035	   0.0000152041218478	  -0.1862085428091737	  -5.1197930904199191	  -0.0000029440999283	
   0.4989294616193085	  -0.0652630961099743	   0.0019743927771713	  -0.0063942294855099	   0.0000145994240150	  -0.1922480735033724	  -5.9506334461787462	  -0.0000034268822245	
   0.4989294616193051	  -0.0327015646150200	   0.0002622130093276	  -0.0072435411380197	   0.0000133272368175	  -0.1989182893321589	  -6.7341545866537782	  -0.0000038833691121	
   0.4989294616193017	   0.0000000000000516	   0.0000595609556079	  -0.0079979535871014	   0.0000113798079614	  -0.2063929415721988	  -7.4284631224987256	  -0.0000042891644619	
   0.4989294616192984	   0.0327015646151232	   0.0013907562341011	  -0.0086132293633483	   0.0000087755972232	  -0.2147611609423981	  -7.9928697974818421	  -0.0000046204740262	
   0.4989294616192950	   0.0652630961100774	   0.0041416331346265	  -0.0090489629468983	   0.0000055617915364	  -0.2240765157337356	  -8.3903563930024685	  -0.0000048555275147	
   0.4989294616192916	   0.0975451610081157	   0.0080519495644960	  -0.0092711132090297	   0.0000018119553902	  -0.2343723509747079	  -8.5898997732089768	  -0.0000049759583245	
   0.4989294616192884	   0.1294095225513119	   0.0127221766981682	  -0.0092550808997470	  -0.0000023485476376	  -0.2456639365064097	  -8.5692793478678038	  -0.0000049684538086	
   0.4989294616192851	   0.1607197326516324	   0.0176388039509328	  -0.0089895354976999	  -0.0000067293561584	  -0.2579465262850138	  -8.3185649461724314	  -0.0000048268236905	
   0.4989294616192820	   0.1913417161825963	   0.0222214416832666	  -0.0084804234981566	  -0.0000110622619407	  -0.2711927654237297	  -7.8437310578524748	  -0.0000045541736449	
   0.4989294616192789	   0.2211443451095522	   0.0258904873421309	  -0.0077537707341012	  -0.0000150221064099	  -0.2853508128971521	  -7.1691645283577587	  -0.0000041644157340	
   0.4989294616192759	   0.2500000000000515	   0.0281461273540092	  -0.0068556196017461	  -0.0000182696339232	  -0.3003437442717658	  -6.3375178163588028	  -0.0000036822697595	
   0.4989294616192730	   0.2777851165098527	   0.0286416974550421	  -0.0058479360586742	  -0.0000205188364800	  -0.3160701551815104	  -5.4059215833137886	  -0.0000031410386728	
   0.4989294616192703	   0.3043807145044119	   0.0272316117587131	  -0.0048006915762559	  -0.0000216009849743	  -0.3324051663026120	  -4.4386964434455392	  -0.0000025783860729	
   0.4989294616192677	   0.3296729075500860	   0.0239801934409659	  -0.0037818793931483	  -0.0000215005018630	  -0.3492004606658592	  -3.4982567817474299	  -0.0000020309010233	
   0.4989294616192652	   0.3535533905933253	   0.0191304514305107	  -0.0028482303692082	  -0.0000203527982962	  -0.3662820246824259	  -2.6366224222173251	  -0.0000015291537212	
   0.4989294616192629	   0.3759199037395402	   0.0130456275893498	  -0.0020391174136750	  -0.0000183936582700	  -0.3834453249236383	  -1.8899078253180794	  -0.0000010943226094	
   0.4989294616192607	   0.3966766701456690	   0.0061430432843981	  -0.0013748435787240	  -0.0000159013121602	  -0.4004497004665685	  -1.2767275049671758	  -0.0000007373707403	
   0.4989294616192588	   0.4157348061513241	  -0.0011617801298642	  -0.0008588235179439	  -0.0000131232560085	  -0.4170159435486289	  -0.8002350294045096	  -0.0000004600974919	
   0.4989294616192569	   0.4330127018922709	  -0.0084915143652238	  -0.0004820321957075	  -0.0000102535311433	  -0.4328318532648369	  -0.4521110318345321	  -0.0000002576952200	
   0.4989294616192554	   0.4484363707663956	  -0.0155232419015944	  -0.0002277581535589	  -0.0000074073279442	  -0.4475686443035889	  -0.2169622718826155	  -0.0000001211224196	
   0.4989294616192539	   0.4619397662556949	  -0.0219910884586548	  -0.0000751472244265	  -0.0000046828155695	  -0.4609066027190649	  -0.0754447667796734	  -0.0000000392605970	
   0.4989294616192528	   0.4734650647476044	  -0.0276831599882531	  -0.0000009394349333	  -0.0000021848629182	  -0.4725633912371859	  -0.0059814650840912	   0.0000000004602904	
   0.4989294616192518	   0.4829629131445857	  -0.0324411837594536	   0.0000200860588240	  -0.0000001734385706	  -0.4823159478887473	   0.0149244201613587	   0.0000000114366290	
   0.4989294616192510	   0.4903926402016668	  -0.0361647397111084	   0.0000140119295818	   0.0000010245643983	  -0.4900089216143703	   0.0112288632138993	   0.0000000078813603	
   0.4989294616192505	   0.4957224306869568	  -0.0388164892212300	   0.0000037043256148	   0.0000010288937634	  -0.4955483495229075	   0.0035589461003854	   0.0000000019424771	
   0.4989294616192502	   0.4989294616193533	  -0.0404066457906705	   0.0000000826390053	   0.0000000829210594	  -0.4988856144724999	   0.0004775197508049	   0.0000000000720773	
   0.4989294616192501	   0.5000000000000516	   0.0000000000000000	   0.0000000000000000	   0.0000000000000000	  -0.5000000000000000	  -0.0001483894357739	   0.0000000000000000	
   0.4957224306869569	  -0.4999999999999488	   0.0000000000000000	   0.0000000000000000	   0.0000000000000000	   0.5000000000000000	  -0.0042068524100135	   0.0000000000000000	
   0.4957224306869568	  -0.4989294616192505	   0.0147597876956382	  -0.0000003629429419	   0.0000028984307117	   0.4963076679896490	  -0.0011427490670769	  -0.0000000017881020	
   0.4957224306869564	  -0.4957224306868540	   0.0163450539765977	   0.0000014757817611	  -0.0000014772673541	   0.4852482992124795	   0.0065909379240524	  -0.0000000079719186	
   0.4957224306869559	  -0.4903926402015640	   0.0189312281212343	   0.0000386972063015	  -0.0000250016314640	   0.4668816473718395	   0.0202661001752717	   0.0000000592624962	
   0.4957224306869552	  -0.4829629131444829	   0.0223838904454410	   0.0001823136534565	  -0.0000572177353603	   0.4413316115521654	   0.0517079424575212	   0.0000003701398196	
   0.4957224306869542	  -0.4734650647475016	   0.0264586885459558	   0.0004892213350018	  -0.0000831623861834	   0.4088104200687981	   0.1141892795619047	   0.0000010507271536	
   0.4957224306869530	  -0.4619397662555921	   0.0308267018558680	   0.0009565844932843	  -0.0000938705266496	   0.3696352933392430	   0.2093935272798443	   0.0000020896522427	
   0.4957224306869515	  -0.4484363707662929	   0.0351214621974086	   0.0015133221279083	  -0.0000864055807305	   0.3242417144941601	   0.3236860513755366	   0.0000033260892440	
   0.4957224306869500	  -0.4330127018921681	   0.0389832790939093	   0.0020353427904350	  -0.0000619760654842	   0.2732191320826466	   0.4309068726816800	   0.0000044861579973	
   0.4957224306869482	  -0.4157348061512214	   0.0420944958023557	   0.0023743929541604	  -0.0000249639705923	   0.2174049588214189	   0.4987261736068949	   0.0000052455015959	
   0.4957224306869462	  -0.3966766701455663	   0.0442021464991600	   0.0023934676045039	   0.0000183247179269	   0.1580546911256788	   0.4964648780523379	   0.0000053069510095	
   0.4957224306869440	  -0.3759199037394375	   0.0451266596602969	   0.0019991239719502	   0.0000611855678992	   0.0970498426471610	   0.4024061619110538	   0.0000044699038712	
   0.4957224306869418	  -0.3535533905932225	   0.0447621122015721	   0.0011577821909585	   0.0000985601741610	   0.0370179001557677	   0.2077315460862114	   0.0000026652525172	
   0.4957224306869393	  -0.3296729075499832	   0.0430787834713026	  -0.0001117911944235	   0.0001283476203989	  -0.0188296454793541	  -0.0846163971613504	  -0.0000000628470606	
   0.4957224306869367	  -0.3043807145043091	   0.0401338353512310	  -0.0017649647625776	   0.0001514365467693	  -0.0672803081545252	  -0.4653938856219006	  -0.0000036154059440	
   0.4957224306869339	  -0.2777851165097500	   0.0360818465009773	  -0.0037601480998541	   0.0001703031025993	  -0.1060142803426643	  -0.9253357071473932	  -0.0000079021534446	
   0.4957224306869311	  -0.2499999999999488	   0.0311692450927463	  -0.0060743902557551	   0.0001873649109375	  -0.1343782425044515	  -1.4587570258810676	  -0.0000128748170733	
   0.4957224306869281	  -0.2211443451094494	   0.0257078132502380	  -0.0087007352838312	   0.0002038101091846	  -0.1535415120422452	  -2.0631019709517315	  -0.0000185212771061	
   0.4957224306869250	  -0.1913417161824937	   0.0200409301725593	  -0.0116322566395864	   0.0002192258719698	  -0.1659033262559703	  -2.7354520579663850	  -0.0000248305103902	
   0.4957224306869218	  -0.1607197326515296	   0.0145193971179106	  -0.0148410947074531	   0.0002317766090351	  -0.1741363438193455	  -3.4679383463739160	  -0.0000317470420503	
   0.4957224306869186	  -0.1294095225512091	   0.0094892721182544	  -0.0182616138136134	   0.0002389037030569	  -0.1804277441882353	  -4.2441999605285927	  -0.0000391335439000	
   0.4957224306869153	  -0.0975451610080129	   0.0052814056257390	  -0.0217847212553298	   0.0002381610229894	  -0.1862033973477010	  -5.0383942415723695	  -0.0000467578139712	
   0.4957224306869120	  -0.0652630961099746	   0.0021929678215743	  -0.0252645912312376	   0.0002278343669968	  -0.1922390586424266	  -5.8169308185606141	  -0.0000543064729408	
   0.4957224306869086	  -0.0327015646150204	   0.0004599639871019	  -0.0285330086649781	   0.0002070977709542	  -0.1989067433817119	  -6.5418059910075206	  -0.0000614158147076	
   0.4957224306869052	   0.0000000000000512	   0.0002264023396050	  -0.0314150241651622	   0.0001758588259337	  -0.2063792561363323	  -7.1741291170205841	  -0.0000677055484388	
   0.4957224306869018	   0.0327015646151228	   0.0015170523425518	  -0.0337419823391839	   0.0001345109515328	  -0.2147453846576422	  -7.6770075278416812	  -0.0000728072767259	
   0.4957224306868984	   0.0652630961100771	   0.0042185412817635	  -0.0353617096041325	   0.0000838176192790	  -0.2240586344539165	  -8.0177614542313993	  -0.0000763866944701	
   0.4957224306868951	   0.0975451610081154	   0.0080718744447537	  -0.0361480584187700	   0.0000250117160672	  -0.2343524005490837	  -8.1699818436186877	  -0.0000781646441202	
   0.4957224306868918	   0.1294095225513116	   0.0126794617595927	  -0.0360123801879839	  -0.0000399373683306	  -0.2456420466607557	  -8.1159534367313828	  -0.0000779423621603	
   0.4957224306868886	   0.1607197326516321	   0.0175306993056248	  -0.0349176298711852	  -0.0001080256138915	  -0.2579229332745546	  -7.8495878927133234	  -0.0000756328364838	
   0.4957224306868854	   0.1913417161825960	   0.0220491451398031	  -0.0328928442022362	  -0.0001751199089311	  -0.2711678009175633	  -7.3793205847396459	  -0.0000712931800064	
   0.4957224306868823	   0.2211443451095518	   0.0256599260751959	  -0.0300428330869771	  -0.0002362142565583	  -0.2853248689095013	  -6.7299126583047633	  -0.0000651468144823	
   0.4957224306868793	   0.2500000000000511	   0.0278680736509921	  -0.0265470144055525	  -0.0002861478846216	  -0.3003172182576745	  -5.9418804116831057	  -0.0000575818191177	
   0.4957224306868765	   0.2777851165098524	   0.0283309604421247	  -0.0226433414527002	  -0.0003205822110045	  -0.3160433887375190	  -5.0678364071732567	  -0.0000491162796745	
   0.4957224306868737	   0.3043807145044116	   0.0269053483479687	  -0.0185982984137121	  -0.0003369886711811	  -0.3323783994662873	  -4.1659699842211380	  -0.0000403325814841	
   0.4957224306868711	   0.3296729075500857	   0.0236557092761852	  -0.0146696095540779	  -0.0003351729718859	  -0.3491738257033712	  -3.2921612811147032	  -0.0000317951476903	
   0.4957224306868686	   0.3535533905933250	   0.0188231026331955	  -0.0110718033399974	  -0.0003172195111957	  -0.3662555943109281	  -2.4927447792166681	  -0.0000239743383784	
   0.4957224306868663	   0.3759199037395399	   0.0127673387035866	  -0.0079537094464024	  -0.0002867629003610	  -0.3834192099055348	  -1.7998576544088694	  -0.0000171964777448	
   0.4957224306868642	   0.3966766701456687	   0.0059017722914703	  -0.0053921725272201	  -0.0002480403004022	  -0.4004241659674254	  -1.2301166731936268	  -0.0000116300189921	
   0.4957224306868622	   0.4157348061513237	  -0.0013617515842543	  -0.0034001432879422	  -0.0002049005494789	  -0.4169914936056729	  -0.7863534771860364	  -0.0000073032716020	
   0.4957224306868604	   0.4330127018922706	  -0.0086487226844307	  -0.0019431291807322	  -0.0001603059715917	  -0.4328092313714786	  -0.4609970174722274	  -0.0000041410625860	
   0.4957224306868588	   0.4484363707663953	  -0.0156382323425922	  -0.0009567304030004	  -0.0001162039551732	  -0.4475487229480377	  -0.2397691391379178	  -0.0000020033236115	
   0.4957224306868574	   0.4619397662556946	  -0.0220660418761497	  -0.0003597742624346	  -0.0000741534567782	  -0.4608901802401539	  -0.1043374941970680	  -0.0000007145099187	
   0.4957224306868562	   0.4734650647476040	  -0.0277225953961314	  -0.0000609910505709	  -0.0000361896492409	  -0.4725509615437222	  -0.0338628513473983	  -0.0000000776064519	
   0.4957224306868552	   0.4829629131445853	  -0.0324533704450660	   0.0000379675972319	  -0.0000060654078333	  -0.4823075337909358	  -0.0058741226421966	   0.0000001200041520	
   0.4957224306868545	   0.4903926402016665	  -0.0361628322106395	   0.0000357025022052	   0.0000109455549265	  -0.4900040464183733	   0.0012071860062574	   0.0000000951281764	
   0.4957224306868540	   0.4957224306869564	  -0.0388138501003838	   0.0000116361139822	   0.0000116467505345	  -0.4955461584150487	   0.0028513220110050	   0.0000000282149276	
   0.4957224306868536	   0.4989294616193530	  -0.0404040216300966	   0.0000010274412400	   0.0000037023368143	  -0.4988850652608823	   0.0035559662840736	   0.0000000019414665	
   0.4957224306868535	   0.5000000000000513	   0.0000000000000000	   0.0000000000000000	   0.0000000000000000	  -0.5000000000000000	   0.0034777967502301	   0.0000000000000000	
   0.4903926402016669	  -0.4999999999999493	   0.0000000000000000	   0.0000000000000000	   0.0000000000000000	   0.5000000000000000	  -0.0001493836550360	   0.0000000000000000	
   0.4903926402016668	  -0.4989294616192510	   0.0146993709565908	   0.0000014765813734	  -0.0000029434076245	   0.4963030383495020	   0.0057965586579111	   0.0000000010121385	
   0.4903926402016665	  -0.4957224306868545	   0.0162991561410736	   0.0000249870669315	  -0.0000386880719851	   0.4852299210168114	   0.0202692432321611	   0.0000000592205491	
   0.4903926402016660	  -0.4903926402015645	   0.0188852474011674	   0.0001365126836434	  -0.0001365315773614	   0.4668412474703484	   0.0390265635796695	   0.0000005170356697	
   0.4903926402016652	  -0.4829629131444834	   0.0223177279437653	   0.0004482942172900	  -0.0002702945296242	   0.4412628364804894	   0.0654679352108094	   0.0000020467861281	
   0.4903926402016642	  -0.4734650647475021	   0.0263672293517870	   0.0010602078576802	  -0.0003833349219759	   0.4087091410819064	   0.1088727477799276	   0.0000052075549463	
   0.4903926402016630	  -0.4619397662555926	   0.0307217875457369	   0.0019754198573092	  -0.0004319477003691	   0.3694981739407026	   0.1736451555864328	   0.0000099890165845	
   0.4903926402016616	  -0.4484363707662934	   0.0350241667624381	   0.0030624276311559	  -0.0003975148374751	   0.3240633476156505	   0.2521683195372143	   0.0000156794144232	
   0.4903926402016600	  -0.4330127018921686	   0.0389161858724702	   0.0040746014827324	  -0.0002828286817345	   0.2729892379639208	   0.3249569374613276	   0.0000210022056448	
   0.4903926402016582	  -0.4157348061512219	   0.0420760140178420	   0.0047065815198263	  -0.0001068552049014	   0.2171075209519161	   0.3653758259814456	   0.0000244108470495	
   0.4903926402016562	  -0.3966766701455668	   0.0442428855132329	   0.0046681799888214	   0.0001010341314244	   0.1576709343824348	   0.3463063394385700	   0.0000244608555442	
   0.4903926402016541	  -0.3759199037394380	   0.0452282231367496	   0.0037535802473126	   0.0003090226438181	   0.0965664959366057	   0.2467240357094809	   0.0000201514340224	
   0.4903926402016518	  -0.3535533905932230	   0.0449186311722807	   0.0018792535517652	   0.0004923094961384	   0.0364398589201367	   0.0559177267833057	   0.0000111044825408	
   0.4903926402016493	  -0.3296729075499837	   0.0432806026965990	  -0.0009268805079956	   0.0006399686598086	  -0.0194681034535344	  -0.2263359772334362	  -0.0000025052869475	
   0.4903926402016467	  -0.3043807145043096	   0.0403716104069211	  -0.0045770302768708	   0.0007552613773310	  -0.0679158392920987	  -0.5935118510721732	  -0.0000202203128108	
   0.4903926402016439	  -0.2777851165097505	   0.0363490932062332	  -0.0089831535319473	   0.0008494698916907	  -0.1065726839458072	  -1.0374742411974780	  -0.0000416023064632	
   0.4903926402016411	  -0.2499999999999493	   0.0314625026081692	  -0.0140907507553396	   0.0009338010120013	  -0.1348032815717291	  -1.5518461776151695	  -0.0000663978118373	
   0.4903926402016381	  -0.2211443451094499	   0.0260249583097739	  -0.0198743082387141	   0.0010137018929058	  -0.1538154718239831	  -2.1318951871379288	  -0.0000945127971509	
   0.4903926402016350	  -0.1913417161824942	   0.0203788497935533	  -0.0263037951927533	   0.0010868399065657	  -0.1660456575450485	  -2.7715901537597780	  -0.0001258445885017	
   0.4903926402016318	  -0.1607197326515301	   0.0148721002152609	  -0.0333011467001841	   0.0011441854995626	  -0.1741848932549858	  -3.4597939227538248	  -0.0001600629013739	
   0.4903926402016286	  -0.1294095225512097	   0.0098471469680823	  -0.0407070242391410	   0.0011734381800403	  -0.1804185807170907	  -4.1777061519313445	  -0.0001964365871703	
   0.4903926402016253	  -0.0975451610080134	   0.0056316908959557	  -0.0482722336494094	   0.0011631548604133	  -0.1861606115643361	  -4.8987214298330386	  -0.0002337806589124	