 title="result"
 variables="x","y","P","u","v","t","omega","psi","RES1","RES2","RES3","RES4"
zone,j= 49,i= 49,f=point
 -0.1830   0.6830    0.2425375485937183E-01    0.0000000000000000E+00    0.0000000000000000E+00   -0.5000000000000000E+00    0.0000000000000000E+00    0.0000000000000000E+00    0.0000000000000000E+00    0.0000000000000000E+00    0.0000000000000000E+00    0.0000000000000000E+00
 -0.1835   0.6821    0.2471505308466904E-01    0.0000000000000000E+00    0.0000000000000000E+00   -0.4948835179872392E+00    0.5488904843188429E-03    0.0000000000000000E+00    0.0000000000000000E+00    0.0000000000000000E+00    0.0000000000000000E+00    0.0000000000000000E+00
 -0.1852   0.6793    0.2603833885594492E-01    0.0000000000000000E+00    0.0000000000000000E+00   -0.4795592442298152E+00   -0.4906513592887486E-02    0.0000000000000000E+00    0.0000000000000000E+00    0.0000000000000000E+00    0.0000000000000000E+00    0.0000000000000000E+00
 -0.1878   0.6747    0.2814197748482052E-01    0.0000000000000000E+00    0.0000000000000000E+00   -0.4541228787966519E+00   -0.4898771891409247E-01    0.0000000000000000E+00    0.0000000000000000E+00    0.0000000000000000E+00    0.0000000000000000E+00    0.0000000000000000E+00
 -0.1915   0.6683    0.3100595004343158E-01    0.0000000000000000E+00    0.0000000000000000E+00   -0.4188068609343300E+00   -0.1563274489791310E+00    0.0000000000000000E+00    0.0000000000000000E+00    0.0000000000000000E+00    0.0000000000000000E+00    0.0000000000000000E+00
 -0.1963   0.6600    0.3458951700926844E-01    0.0000000000000000E+00    0.0000000000000000E+00   -0.3741065869178433E+00   -0.3223754287004630E+00    0.0000000000000000E+00    0.0000000000000000E+00    0.0000000000000000E+00    0.0000000000000000E+00    0.0000000000000000E+00
 -0.2020   0.6501    0.3875516855612886E-01    0.0000000000000000E+00    0.0000000000000000E+00   -0.3209655228262889E+00   -0.5196233379264039E+00    0.0000000000000000E+00    0.0000000000000000E+00    0.0000000000000000E+00    0.0000000000000000E+00    0.0000000000000000E+00
 -0.2088   0.6384    0.4324211746593486E-01    0.0000000000000000E+00    0.0000000000000000E+00   -0.2609699941401188E+00   -0.7086051978430226E+00    0.0000000000000000E+00    0.0000000000000000E+00    0.0000000000000000E+00    0.0000000000000000E+00    0.0000000000000000E+00
 -0.2165   0.6250    0.4766957161999075E-01    0.0000000000000000E+00    0.0000000000000000E+00   -0.1964521327557182E+00   -0.8515244740532714E+00    0.0000000000000000E+00    0.0000000000000000E+00    0.0000000000000000E+00    0.0000000000000000E+00    0.0000000000000000E+00
 -0.2251   0.6100    0.5158084733916261E-01    0.0000000000000000E+00    0.0000000000000000E+00   -0.1303930839885273E+00   -0.9257678272121335E+00    0.0000000000000000E+00    0.0000000000000000E+00    0.0000000000000000E+00    0.0000000000000000E+00    0.0000000000000000E+00
 -0.2347   0.5935    0.5451716786381301E-01    0.0000000000000000E+00    0.0000000000000000E+00   -0.6609146715896839E-01   -0.9342906813224497E+00    0.0000000000000000E+00    0.0000000000000000E+00    0.0000000000000000E+00    0.0000000000000000E+00    0.0000000000000000E+00
 -0.2451   0.5756    0.5611196020996642E-01    0.0000000000000000E+00    0.0000000000000000E+00   -0.6682486208584091E-02   -0.9077422057503290E+00    0.0000000000000000E+00    0.0000000000000000E+00    0.0000000000000000E+00    0.0000000000000000E+00    0.0000000000000000E+00
 -0.2562   0.5562    0.5617014820223169E-01    0.0000000000000000E+00    0.0000000000000000E+00    0.4533054722339119E-01   -0.8948809490008701E+00    0.0000000000000000E+00    0.0000000000000000E+00    0.0000000000000000E+00    0.0000000000000000E+00    0.0000000000000000E+00
 -0.2682   0.5355    0.5469712119820946E-01    0.0000000000000000E+00    0.0000000000000000E+00    0.8839819969406951E-01   -0.9448807607692751E+00    0.0000000000000000E+00    0.0000000000000000E+00    0.0000000000000000E+00    0.0000000000000000E+00    0.0000000000000000E+00
 -0.2808   0.5136    0.5186150025353418E-01    0.0000000000000000E+00    0.0000000000000000E+00    0.1220541508369827E+00   -0.1092035616095012E+01    0.0000000000000000E+00    0.0000000000000000E+00    0.0000000000000000E+00    0.0000000000000000E+00    0.0000000000000000E+00
 -0.2941   0.4906    0.4792200473397161E-01    0.0000000000000000E+00    0.0000000000000000E+00    0.1468640993645501E+00   -0.1351840805266886E+01    0.0000000000000000E+00    0.0000000000000000E+00    0.0000000000000000E+00    0.0000000000000000E+00    0.0000000000000000E+00
 -0.3080   0.4665    0.4316396295714462E-01    0.0000000000000000E+00    0.0000000000000000E+00    0.1642136865107280E+00   -0.1727170632773756E+01    0.0000000000000000E+00    0.0000000000000000E+00    0.0000000000000000E+00    0.0000000000000000E+00    0.0000000000000000E+00
 -0.3224   0.4415    0.3787113180077788E-01    0.0000000000000000E+00    0.0000000000000000E+00    0.1759635596134330E+00   -0.2215982264179819E+01    0.0000000000000000E+00    0.0000000000000000E+00    0.0000000000000000E+00    0.0000000000000000E+00    0.0000000000000000E+00
 -0.3373   0.4157    0.3232426646519818E-01    0.0000000000000000E+00    0.0000000000000000E+00    0.1840464337609474E+00   -0.2814265327400332E+01    0.0000000000000000E+00    0.0000000000000000E+00    0.0000000000000000E+00    0.0000000000000000E+00    0.0000000000000000E+00
 -0.3527   0.3892    0.2680931987033919E-01    0.0000000000000000E+00    0.0000000000000000E+00    0.1901259831739054E+00   -0.3514647272825545E+01    0.0000000000000000E+00    0.0000000000000000E+00    0.0000000000000000E+00    0.0000000000000000E+00    0.0000000000000000E+00
 -0.3683   0.3621    0.2162313741172962E-01    0.0000000000000000E+00    0.0000000000000000E+00    0.1954177892475282E+00   -0.4303940135181787E+01    0.0000000000000000E+00    0.0000000000000000E+00    0.0000000000000000E+00    0.0000000000000000E+00    0.0000000000000000E+00
 -0.3842   0.3345    0.1707237330122046E-01    0.0000000000000000E+00    0.0000000000000000E+00    0.2006881520230112E+00   -0.5161918991537376E+01    0.0000000000000000E+00    0.0000000000000000E+00    0.0000000000000000E+00    0.0000000000000000E+00    0.0000000000000000E+00
 -0.4004   0.3065    0.1346307962968054E-01    0.0000000000000000E+00    0.0000000000000000E+00    0.2063643107861170E+00   -0.6061752326890973E+01    0.0000000000000000E+00    0.0000000000000000E+00    0.0000000000000000E+00    0.0000000000000000E+00    0.0000000000000000E+00
 -0.4167   0.2783    0.1108247253707961E-01    0.0000000000000000E+00    0.0000000000000000E+00    0.2126677642942243E+00   -0.6971582161598027E+01    0.0000000000000000E+00    0.0000000000000000E+00    0.0000000000000000E+00    0.0000000000000000E+00    0.0000000000000000E+00
 -0.4330   0.2500    0.1017608177048600E-01    0.0000000000000000E+00    0.0000000000000000E+00    0.2197154846610638E+00   -0.7856317508511630E+01    0.0000000000000000E+00    0.0000000000000000E+00    0.0000000000000000E+00    0.0000000000000000E+00    0.0000000000000000E+00
 -0.4494   0.2217    0.1092440665767016E-01    0.0000000000000000E+00    0.0000000000000000E+00    0.2275773473932575E+00   -0.8678881897880812E+01    0.0000000000000000E+00    0.0000000000000000E+00    0.0000000000000000E+00    0.0000000000000000E+00    0.0000000000000000E+00
 -0.4656   0.1935    0.1342030806381560E-01    0.0000000000000000E+00    0.0000000000000000E+00    0.2363015460532265E+00   -0.9400589318796310E+01    0.0000000000000000E+00    0.0000000000000000E+00    0.0000000000000000E+00    0.0000000000000000E+00    0.0000000000000000E+00
 -0.4818   0.1655    0.1764694251999142E-01    0.0000000000000000E+00    0.0000000000000000E+00    0.2459227767750690E+00   -0.9981067839011191E+01    0.0000000000000000E+00    0.0000000000000000E+00    0.0000000000000000E+00    0.0000000000000000E+00    0.0000000000000000E+00
 -0.4977   0.1379    0.2345567353801806E-01    0.0000000000000000E+00    0.0000000000000000E+00    0.2564627697373928E+00   -0.1037865424250472E+02    0.0000000000000000E+00    0.0000000000000000E+00    0.0000000000000000E+00    0.0000000000000000E+00    0.0000000000000000E+00
 -0.5134   0.1108    0.3054705945507114E-01    0.0000000000000000E+00    0.0000000000000000E+00    0.2679277719246434E+00   -0.1055247727665849E+02    0.0000000000000000E+00    0.0000000000000000E+00    0.0000000000000000E+00    0.0000000000000000E+00    0.0000000000000000E+00
 -0.5287   0.0843    0.3846269553908853E-01    0.0000000000000000E+00    0.0000000000000000E+00    0.2803049899511862E+00   -0.1046711109260808E+02    0.0000000000000000E+00    0.0000000000000000E+00    0.0000000000000000E+00    0.0000000000000000E+00    0.0000000000000000E+00
 -0.5436   0.0585    0.4660033106784153E-01    0.0000000000000000E+00    0.0000000000000000E+00    0.2935590837697651E+00   -0.1009987123449733E+02    0.0000000000000000E+00    0.0000000000000000E+00    0.0000000000000000E+00    0.0000000000000000E+00    0.0000000000000000E+00
 -0.5580   0.0335    0.5426382861261035E-01    0.0000000000000000E+00    0.0000000000000000E+00    0.3076295477274486E+00   -0.9449347728680729E+01    0.0000000000000000E+00    0.0000000000000000E+00    0.0000000000000000E+00    0.0000000000000000E+00    0.0000000000000000E+00
 -0.5719   0.0094    0.6075097669174547E-01    0.0000000000000000E+00    0.0000000000000000E+00    0.3224295881679192E+00   -0.8542352556903754E+01    0.0000000000000000E+00    0.0000000000000000E+00    0.0000000000000000E+00    0.0000000000000000E+00    0.0000000000000000E+00
 -0.5852  -0.0136    0.6546552481117132E-01    0.0000000000000000E+00    0.0000000000000000E+00    0.3378465956668474E+00   -0.7435727203552182E+01    0.0000000000000000E+00    0.0000000000000000E+00    0.0000000000000000E+00    0.0000000000000000E+00    0.0000000000000000E+00
 -0.5978  -0.0355    0.6802315759858302E-01    0.0000000000000000E+00    0.0000000000000000E+00    0.3537434951027874E+00   -0.6210629687114984E+01    0.0000000000000000E+00    0.0000000000000000E+00    0.0000000000000000E+00    0.0000000000000000E+00    0.0000000000000000E+00
 -0.6098  -0.0562    0.6831556200256732E-01    0.0000000000000000E+00    0.0000000000000000E+00    0.3699594408990874E+00   -0.4959709192749728E+01    0.0000000000000000E+00    0.0000000000000000E+00    0.0000000000000000E+00    0.0000000000000000E+00    0.0000000000000000E+00
 -0.6210  -0.0756    0.6650976899644931E-01    0.0000000000000000E+00    0.0000000000000000E+00    0.3863081342217085E+00   -0.3770979395260572E+01    0.0000000000000000E+00    0.0000000000000000E+00    0.0000000000000000E+00    0.0000000000000000E+00    0.0000000000000000E+00
 -0.6314  -0.0935    0.6298626874499945E-01    0.0000000000000000E+00    0.0000000000000000E+00    0.4025731486980049E+00   -0.2713739592986882E+01    0.0000000000000000E+00    0.0000000000000000E+00    0.0000000000000000E+00    0.0000000000000000E+00    0.0000000000000000E+00
 -0.6409  -0.1100    0.5824318673266490E-01    0.0000000000000000E+00    0.0000000000000000E+00    0.4185022049544087E+00   -0.1830919458502625E+01    0.0000000000000000E+00    0.0000000000000000E+00    0.0000000000000000E+00    0.0000000000000000E+00    0.0000000000000000E+00
 -0.6495  -0.1250    0.5280198384622751E-01    0.0000000000000000E+00    0.0000000000000000E+00    0.4338052777205278E+00   -0.1138918844794656E+01    0.0000000000000000E+00    0.0000000000000000E+00    0.0000000000000000E+00    0.0000000000000000E+00    0.0000000000000000E+00
 -0.6572  -0.1384    0.4714023055683713E-01    0.0000000000000000E+00    0.0000000000000000E+00    0.4481625204998361E+00   -0.6330484195309696E+00    0.0000000000000000E+00    0.0000000000000000E+00    0.0000000000000000E+00    0.0000000000000000E+00    0.0000000000000000E+00
 -0.6640  -0.1501    0.4165950389544030E-01    0.0000000000000000E+00    0.0000000000000000E+00    0.4612451868578148E+00   -0.2946926756485294E+00    0.0000000000000000E+00    0.0000000000000000E+00    0.0000000000000000E+00    0.0000000000000000E+00    0.0000000000000000E+00
 -0.6697  -0.1600    0.3667979393260831E-01    0.0000000000000000E+00    0.0000000000000000E+00    0.4727462829291967E+00   -0.9698403210914915E-01    0.0000000000000000E+00    0.0000000000000000E+00    0.0000000000000000E+00    0.0000000000000000E+00    0.0000000000000000E+00
 -0.6745  -0.1683    0.3244432692302321E-01    0.0000000000000000E+00    0.0000000000000000E+00    0.4824111092468998E+00   -0.6987731702857112E-02    0.0000000000000000E+00    0.0000000000000000E+00    0.0000000000000000E+00    0.0000000000000000E+00    0.0000000000000000E+00
 -0.6782  -0.1747    0.2911810614355979E-01    0.0000000000000000E+00    0.0000000000000000E+00    0.4900559432460635E+00    0.1358279904242936E-01    0.0000000000000000E+00    0.0000000000000000E+00    0.0000000000000000E+00    0.0000000000000000E+00    0.0000000000000000E+00
 -0.6809  -0.1793    0.2677657084710343E-01    0.0000000000000000E+00    0.0000000000000000E+00    0.4955681759928108E+00    0.5740596366182911E-02    0.0000000000000000E+00    0.0000000000000000E+00    0.0000000000000000E+00    0.0000000000000000E+00    0.0000000000000000E+00
 -0.6825  -0.1821    0.2539595088060437E-01    0.0000000000000000E+00    0.0000000000000000E+00    0.4988906032464615E+00   -0.3815712149021610E-04    0.0000000000000000E+00    0.0000000000000000E+00    0.0000000000000000E+00    0.0000000000000000E+00    0.0000000000000000E+00
 -0.6830  -0.1830    0.2493661877196324E-01    0.0000000000000000E+00    0.0000000000000000E+00    0.5000000000000000E+00    0.0000000000000000E+00    0.0000000000000000E+00    0.0000000000000000E+00    0.0000000000000000E+00    0.0000000000000000E+00    0.0000000000000000E+00
 -0.1821   0.6825    0.2452127600651230E-01    0.0000000000000000E+00    0.0000000000000000E+00   -0.5000000000000000E+00    0.5495324381813311E-03    0.0000000000000000E+00    0.0000000000000000E+00    0.0000000000000000E+00    0.0000000000000000E+00    0.0000000000000000E+00
 -0.1826   0.6816    0.2498120599524329E-01   -0.4344377167703329E-07    0.4382020347678301E-07   -0.4948833551729077E+00   -0.7283801606687945E-03    0.4793119267511058E-10    0.3464314020655730E-09   -0.7859130013443405E-12   -0.7846969601876808E-12    0.1490745396050264E-10
 -0.1842   0.6788    0.2630723698628394E-01    0.7454991227175345E-05   -0.2565465811887945E-05   -0.4795585814890383E+00   -0.9596318611090095E-02   -0.3580305918417908E-08    0.3409502992435254E-09   -0.1440932442808851E-11   -0.1164894569694042E-11    0.5915149793589425E-10
 -0.1869   0.6742    0.2841635088912047E-01    0.5310549428867110E-04   -0.6483475831606742E-05   -0.4541213128382533E+00   -0.5053898752783879E-01   -0.2837262600020496E-07    0.3357723630387222E-09   -0.1290569213996395E-11   -0.1118428266666527E-11    0.1332971146655870E-09
 -0.1906   0.6677    0.3127520901862361E-01    0.1631586410244230E-03   -0.9168955987561282E-05   -0.4188038758929574E+00   -0.1487477112769548E+00   -0.8805824572054539E-07    0.3323512957897901E-09   -0.7414346914202952E-12   -0.1194315479846608E-11    0.2370485092939578E-09
 -0.1954   0.6595    0.3483885619908761E-01    0.3350441624977316E-03   -0.1004391109474267E-04   -0.3741016102549929E+00   -0.3037150188624915E+00   -0.1811300965624117E-06    0.3303396618747900E-09   -0.2228772721935002E-13   -0.1148983685972382E-11    0.3709915638583361E-09
 -0.2011   0.6495    0.3897135725070029E-01    0.5410157141981624E-03   -0.9015515462840034E-05   -0.3209580824439874E+00   -0.4912305749947711E+00   -0.2922790791266971E-06    0.3296317802048421E-09    0.5600936381355837E-12   -0.1142329286718535E-11    0.5356032631298469E-09
 -0.2079   0.6378    0.4341502397277423E-01    0.7400959878641072E-03   -0.6746260711660384E-05   -0.2609599195875488E+00   -0.6741447800305884E+00   -0.3994287914227245E-06    0.3291954920464635E-09    0.7148170944049070E-12   -0.1128798443605916E-11    0.7315317102074559E-09
 -0.2156   0.6245    0.4779401470448569E-01    0.8925076879574418E-03   -0.3879986254171475E-05   -0.1964397036746232E+00   -0.8159616267942612E+00   -0.4811075551346179E-06    0.3276953344094613E-09    0.2499944695699696E-12   -0.1100258772979146E-11    0.9585204019391114E-09
 -0.2242   0.6095    0.5165713313420400E-01    0.9741352917030056E-03   -0.1284453436126886E-05   -0.1303790308501452E+00   -0.8942166305811955E+00   -0.5244279677376126E-06    0.3232630435036354E-09   -0.9561934577462239E-12   -0.1092852371098463E-11    0.1215866574089119E-08
 -0.2337   0.5930    0.5455093172206842E-01    0.9876034250960867E-03    0.3766363579717052E-06   -0.6607680404188526E-01   -0.9108645855928349E+00   -0.5308642500104903E-06    0.3136563698656267E-09   -0.2957710465434360E-11   -0.1041314495568713E-11    0.1499347160316411E-08
 -0.2441   0.5750    0.5611248049893621E-01    0.9646699097421475E-03    0.6597857551924159E-06   -0.6668260579072659E-02   -0.8945709747921721E+00   -0.5176177926925057E-06    0.2961397650540210E-09   -0.5701245031630719E-11   -0.1021718733923427E-11    0.1798020440868520E-08
 -0.2553   0.5557    0.5614784016393987E-01    0.9563128948038568E-03   -0.3533315088228843E-06    0.4534346076179570E-01   -0.8918175155875206E+00   -0.5121829322878096E-06    0.2680077192075345E-09   -0.8992145569819421E-11   -0.9653510629759054E-12    0.2090364742413087E-08
 -0.2672   0.5350    0.5466109881757866E-01    0.1014244101614160E-02   -0.2258072256783581E-05    0.8840919566233139E-01   -0.9500337602287859E+00   -0.5424086250256630E-06    0.2272537045697187E-09   -0.1247619195454686E-10   -0.9532999389882946E-12    0.2343367597190671E-08
 -0.2799   0.5131    0.5181850043418502E-01    0.1174795858774373E-02   -0.4493540938222654E-05    0.1220629048341971E+00   -0.1102809202435158E+01   -0.6278110974224733E-06    0.1733535502645989E-09   -0.1575915439810949E-10   -0.9238894371765838E-12    0.2516221599135893E-08
 -0.2932   0.4900    0.4787661246930774E-01    0.1454608438882892E-02   -0.6706621966088537E-05    0.1468705524198917E+00   -0.1365738913537738E+01   -0.7772851397773186E-06    0.1072904924626084E-09   -0.1850718189810863E-10   -0.8754871827498789E-12    0.2569843435273889E-08
 -0.3071   0.4660    0.4311935328397495E-01    0.1856922531954429E-02   -0.8744034941147807E-05    0.1642180215864704E+00   -0.1742006995160780E+01   -0.9925430037907445E-06    0.3136231552236524E-10   -0.2044038549531280E-10   -0.8288925101851419E-12    0.2480408652777433E-08
 -0.3215   0.4410    0.3782944425520807E-01    0.2379588012854989E-02   -0.1061562582807779E-04    0.1759661495495910E+00   -0.2229639559681190E+01   -0.1272418835717398E-05   -0.5142169676175534E-10   -0.2129937198835918E-10   -0.7655820422058923E-12    0.2249577076701703E-08
 -0.3364   0.4152    0.3228659758072813E-01    0.3018188480413229E-02   -0.1230613861883890E-04    0.1840477465101913E+00   -0.2824394652984569E+01   -0.1614581066565054E-05   -0.1377374499178519E-09   -0.2078148764184107E-10   -0.7128672652179091E-12    0.1905042618446928E-08
 -0.3517   0.3887    0.2677562578997640E-01    0.3764623899852829E-02   -0.1377805115334143E-04    0.1901264693861634E+00   -0.3518512018222565E+01   -0.2014718813436376E-05   -0.2242726629408942E-09   -0.1856885825657351E-10   -0.6195322033164530E-12    0.1491613331114361E-08
 -0.3674   0.3615    0.2159230332219569E-01    0.4604576328920309E-02   -0.1493496418802607E-04    0.1954177991310739E+00   -0.4298427976807226E+01   -0.2465217511583138E-05   -0.3077359964076543E-09   -0.1445420172441203E-10   -0.5454248164227238E-12    0.1056007490219529E-08
 -0.3833   0.3339    0.1704242222308246E-01    0.5516265861668312E-02   -0.1569511928210276E-04    0.2006879090584390E+00   -0.5143679728406869E+01   -0.2954426794290473E-05   -0.3846363297310695E-09   -0.8384473670908221E-11   -0.4893863092547690E-12    0.6362072062747470E-09
 -0.3995   0.3060    0.1343143845501522E-01    0.6470954862431661E-02   -0.1597476740555244E-04    0.2063639325458058E+00   -0.6027407772053878E+01   -0.3466983415617488E-05   -0.4510277776259564E-09   -0.5475342401695116E-12   -0.4097000516622984E-12    0.2557913360290431E-09
 -0.4157   0.2778    0.1104620167050474E-01    0.7434654058165071E-02   -0.1573122611721087E-04    0.2126673008785844E+00   -0.6917974219537969E+01   -0.3984655211703843E-05   -0.5026819654974091E-09    0.8604811307932891E-11   -0.3187866637333059E-12   -0.7337063161888535E-10
 -0.4321   0.2495    0.1013200972241762E-01    0.8370043059453974E-02   -0.1492261186466316E-04    0.2197149515553210E+00   -0.7780743574786269E+01   -0.4487441465879005E-05   -0.5354040023830553E-09    0.1849864705860682E-10   -0.2889494199465048E-12   -0.3483531119813366E-09
 -0.4484   0.2211    0.1086915895063923E-01    0.9237797498565570E-02   -0.1352124541345242E-04    0.2275767453586383E+00   -0.8579330258146193E+01   -0.4954206289116474E-05   -0.5456008110582555E-09    0.2846256563771021E-10   -0.2301700496865067E-12   -0.5705504801251093E-09
 -0.4647   0.1929    0.1335023971188433E-01    0.9996999207901203E-02   -0.1147133872269832E-04    0.2363008707429192E+00   -0.9275970906753573E+01   -0.5362981610839864E-05   -0.5308668574177666E-09    0.3783512392274702E-10   -0.1783156955426080E-12   -0.7435382223114351E-09
 -0.4809   0.1650    0.1755806394214125E-01    0.1060507484744741E-01   -0.8711048160388956E-05    0.2459220228587624E+00   -0.9831506796077694E+01   -0.5690839164873413E-05   -0.4903444178472327E-09    0.4602335179626493E-10   -0.1690522721808918E-12   -0.8709096360748347E-09
 -0.4968   0.1374    0.2334364103943553E-01    0.1101824964308185E-01   -0.5165633029608760E-05    0.2564619327616111E+00   -0.1020581383154753E+02   -0.5914226753774580E-05   -0.4249652244686652E-09    0.5257827506710555E-10   -0.1714357822368839E-12   -0.9571920894790864E-09
 -0.5124   0.1103    0.3040737395499278E-01    0.1119378044892223E-01   -0.8067954207519031E-06    0.2679268493360193E+00   -0.1035991749915519E+02   -0.6010056013357486E-05   -0.3374715990597105E-09    0.5717259998760937E-10   -0.1623163409236739E-12   -0.1006068209644106E-08
 -0.5278   0.0838    0.3829114747145226E-01    0.1109488168895909E-01    0.4312445371849422E-05    0.2803039816433646E+00   -0.1026051285473553E+02   -0.5958465279441472E-05   -0.2323160084444220E-09    0.5958378235249029E-10   -0.1944520933161442E-12   -0.1022058420535599E-08
 -0.5427   0.0579    0.4639374398189979E-01    0.1069837801657876E-01    0.9984682893179453E-05    0.2935579920432406E+00   -0.9886998454297959E+01   -0.5746817508448725E-05   -0.1153779884133233E-09    0.5968647798226812E-10   -0.2106578800287195E-12   -0.1009354322345501E-08
 -0.5571   0.0330    0.5402091700258144E-01    0.1000359222535310E-01    0.1583470033017055E-04    0.3076283764522826E+00   -0.9239510248191323E+01   -0.5374640040842764E-05    0.6334228280779897E-11    0.5754363652243910E-10   -0.2237238172497769E-12   -0.9718029454069965E-09
 -0.5710   0.0089    0.6047312295163790E-01    0.9039496049248721E-02    0.2132824662489620E-04    0.3224283411374630E+00   -0.8345375098429157E+01   -0.4857351265385647E-05    0.1255470796768243E-09    0.5337225106316623E-10   -0.2429029200001764E-12   -0.9150121910161957E-09
 -0.5843  -0.0141    0.6515706854382267E-01    0.7866449289121613E-02    0.2587578884334895E-04    0.3378452746139902E+00   -0.7260503757659422E+01   -0.4227394227965283E-05    0.2355639502904516E-09    0.4754535654072356E-10   -0.2434163981490656E-12   -0.8423960071168857E-09
 -0.5969  -0.0360    0.6769105428954403E-01    0.6570084880700062E-02    0.2895911954335059E-04    0.3537420984876944E+00   -0.6063734224710069E+01   -0.3530776460571129E-05    0.3311891802471045E-09    0.4066691428050717E-10   -0.2110256414056266E-12   -0.7597173203033325E-09
 -0.6089  -0.0567    0.6796832401429553E-01    0.5247836924709115E-02    0.3027651950086459E-04    0.3699579650388421E+00   -0.4844425420962518E+01   -0.2820021980179028E-05    0.4095314920515847E-09    0.3334560405576781E-10   -0.2112199304349360E-12   -0.6710146518290605E-09
 -0.6200  -0.0761    0.6615612361518966E-01    0.3992089580319234E-02    0.2980598216126875E-04    0.3863065781117407E+00   -0.3687176205719957E+01   -0.2144841606289648E-05    0.4699562822230163E-09    0.2619310324192270E-10   -0.1692535001041051E-12   -0.5799010299734064E-09
 -0.6304  -0.0941    0.6263385832899242E-01    0.2875524338625452E-02    0.2778830185259882E-04    0.4025715225372776E+00   -0.2658444459595794E+01   -0.1544484549679971E-05    0.5138493797129939E-09    0.1967340179653831E-10   -0.1863231791077169E-12   -0.4906063385407000E-09
 -0.6400  -0.1106    0.5789787277809686E-01    0.1943161239143191E-02    0.2461852278610990E-04    0.4185005399997342E+00   -0.1799436999879164E+01   -0.1043126055941410E-05    0.5437578443068247E-09    0.1407209071491167E-10   -0.1843108998755838E-12   -0.4046652873901380E-09
 -0.6486  -0.1255    0.5246769648348215E-01    0.1212213488630242E-02    0.2071481901140608E-04    0.4338036326476615E+00   -0.1125874570610535E+01   -0.6501468729598998E-06    0.5626941690373144E-09    0.9504973197405064E-11   -0.1640076963127512E-12   -0.3251339197873904E-09
 -0.6563  -0.1389    0.4681945396956278E-01    0.6777243594913474E-03    0.1641468090585325E-04    0.4481609787579601E+00   -0.6332353379485564E+00   -0.3627560276403977E-06    0.5735294184017192E-09    0.5973561922889559E-11   -0.1971756091734278E-12   -0.2523127349413068E-09
 -0.6631  -0.1506    0.4135373169772948E-01    0.3200045025786045E-03    0.1194125568931527E-04    0.4612438420468473E+00   -0.3032911661148686E+00   -0.1705270704540412E-06    0.5788506896031720E-09    0.3406518123139080E-11   -0.2095892903675178E-12   -0.1873758873754960E-09
 -0.6688  -0.1606    0.3638982122844985E-01    0.1104548367617296E-03    0.7479605784398616E-05    0.4727452147594735E+00   -0.1095641697665462E+00   -0.5792903997012412E-07    0.5807452782558009E-09    0.1721105896690389E-11   -0.2175759572509151E-12   -0.1313317371520739E-09
 -0.6736  -0.1688    0.3216946695894839E-01    0.1391777565152482E-04    0.3342388120989330E-05    0.4824103586101595E+00   -0.1917512093002569E-01   -0.6372549626513365E-08    0.5810123137814371E-09    0.7871411855653321E-12   -0.2682368216433417E-12   -0.8474387858115051E-10
 -0.6773  -0.1752    0.2885461431889865E-01   -0.1043668207211037E-04    0.1455068773259291E-06    0.4900554977222645E+00    0.5679684971897189E-02    0.6376052809094215E-08    0.5809907964340714E-09    0.4166736400357252E-12   -0.2549262884121717E-12   -0.4781835951511715E-10
 -0.6799  -0.1798    0.2651531426264484E-01   -0.5194238334662250E-05   -0.1214836032630045E-05    0.4955679735836996E+00    0.4014963108632334E-02    0.2863907303473771E-08    0.5816886148105049E-09    0.3424942621177429E-12   -0.2888418670909942E-12   -0.2135930646761375E-10
 -0.6816  -0.1826    0.2513232373516803E-01   -0.2275890912756580E-06   -0.2274822976926555E-06    0.4988905523842599E+00    0.7496500001954622E-03    0.1939680012032308E-09    0.5829448312955066E-09    0.1851612938495728E-12   -0.2024313876247685E-12   -0.5388685483075084E-11
 -0.6821  -0.1835    0.2467269493620194E-01    0.0000000000000000E+00    0.0000000000000000E+00    0.5000000000000000E+00   -0.3797932288104362E-04    0.0000000000000000E+00    0.0000000000000000E+00    0.0000000000000000E+00    0.0000000000000000E+00    0.0000000000000000E+00
 -0.1793   0.6809    0.2535294739604347E-01    0.0000000000000000E+00    0.0000000000000000E+00   -0.5000000000000000E+00   -0.4900659333220553E-02    0.0000000000000000E+00    0.0000000000000000E+00    0.0000000000000000E+00    0.0000000000000000E+00    0.0000000000000000E+00
 -0.1798   0.6799    0.2580193196100113E-01    0.2563731719626533E-05   -0.7451599139198516E-05   -0.4948809510689957E+00   -0.9595338541373089E-02   -0.3578001753805028E-08    0.3414080849625800E-09   -0.1133071880678876E-11   -0.1540945322731080E-11    0.1472441526345625E-10
 -0.1814   0.6772    0.2711563549475653E-01    0.4196860926741235E-04   -0.4197161927023578E-04   -0.4795488419903478E+00   -0.2289681406903839E-01   -0.8056784881969182E-07    0.3391864636381747E-09   -0.3241943226459792E-11   -0.3798031333879237E-11    0.5927774156949672E-10
 -0.1841   0.6726    0.2922208112224597E-01    0.2109638254587827E-03   -0.9508135179370205E-04   -0.4540985629943883E+00   -0.5536645818243393E-01   -0.4542444434660970E-06    0.3355590111331352E-09   -0.3887504033961431E-11   -0.4764164757142808E-11    0.1332560381483994E-09
 -0.1878   0.6661    0.3206120612433862E-01    0.6031170879949986E-03   -0.1365638199315804E-03   -0.4187610520150563E+00   -0.1295221847200480E+00   -0.1336028063750078E-05    0.3322920064108281E-09   -0.2658095965557550E-11   -0.5037380235162203E-11    0.2370016682906595E-09
 -0.1926   0.6579    0.3556882953846632E-01    0.1226704980189435E-02   -0.1512162382822245E-03   -0.3740307673825193E+00   -0.2537081081307784E+00   -0.2728276320561199E-05    0.3301194456684087E-09   -0.5589764762170546E-12   -0.4973021994203464E-11    0.3707415451026375E-09
 -0.1983   0.6479    0.3960797575284103E-01    0.1991593001270308E-02   -0.1383441538990671E-03   -0.3208524099309518E+00   -0.4133523906961738E+00   -0.4418517569067877E-05    0.3289135075412730E-09    0.1183830811157804E-11   -0.4722250368516256E-11    0.5355799206907541E-09
 -0.2051   0.6362    0.4392851386991369E-01    0.2749643479403088E-02   -0.1052619622460066E-03   -0.2608165646226427E+00   -0.5784172917831614E+00   -0.6075099775174584E-05    0.3278962240615968E-09    0.1419628303800380E-11   -0.4379233087270507E-11    0.7312278213489343E-09
 -0.2128   0.6229    0.4816808276573062E-01    0.3350744121711450E-02   -0.6278828097816639E-04   -0.1962620358957394E+00   -0.7164420958360080E+00   -0.7368407130288922E-05    0.3257327498007445E-09   -0.6535605390212140E-12   -0.4029269973226945E-11    0.9582392934692763E-09