 title="result"
 variables="x","y","P","u","v","t","omega","psi","RES1","RES2","RES3","RES4"
zone,j= 49,i= 49,f=point
 -0.2534   0.6601    0.2511083087433620E-01    0.0000000000000000E+00    0.0000000000000000E+00   -0.5000000000000000E+00    0.0000000000000000E+00    0.0000000000000000E+00    0.0000000000000000E+00    0.0000000000000000E+00    0.0000000000000000E+00    0.0000000000000000E+00
 -0.2538   0.6592    0.2559706423177394E-01    0.0000000000000000E+00    0.0000000000000000E+00   -0.4951465432360833E+00    0.3357028769529118E-03    0.0000000000000000E+00    0.0000000000000000E+00    0.0000000000000000E+00    0.0000000000000000E+00    0.0000000000000000E+00
 -0.2551   0.6562    0.2700644053722767E-01    0.0000000000000000E+00    0.0000000000000000E+00   -0.4806097812909238E+00   -0.4538298275777784E-02    0.0000000000000000E+00    0.0000000000000000E+00    0.0000000000000000E+00    0.0000000000000000E+00    0.0000000000000000E+00
 -0.2573   0.6514    0.2926205651692476E-01    0.0000000000000000E+00    0.0000000000000000E+00   -0.4564778367269169E+00   -0.3711673610101728E-01    0.0000000000000000E+00    0.0000000000000000E+00    0.0000000000000000E+00    0.0000000000000000E+00    0.0000000000000000E+00
 -0.2603   0.6446    0.3230837981638109E-01    0.0000000000000000E+00    0.0000000000000000E+00   -0.4229586989203960E+00   -0.1120363040929265E+00    0.0000000000000000E+00    0.0000000000000000E+00    0.0000000000000000E+00    0.0000000000000000E+00    0.0000000000000000E+00
 -0.2642   0.6359    0.3604762153368088E-01    0.0000000000000000E+00    0.0000000000000000E+00   -0.3804818782934549E+00   -0.2241161642946345E+00    0.0000000000000000E+00    0.0000000000000000E+00    0.0000000000000000E+00    0.0000000000000000E+00    0.0000000000000000E+00
 -0.2689   0.6254    0.4029368760984179E-01    0.0000000000000000E+00    0.0000000000000000E+00   -0.3298448325525171E+00   -0.3542207834520520E+00    0.0000000000000000E+00    0.0000000000000000E+00    0.0000000000000000E+00    0.0000000000000000E+00    0.0000000000000000E+00
 -0.2744   0.6130    0.4476105340433421E-01    0.0000000000000000E+00    0.0000000000000000E+00   -0.2723728522229315E+00   -0.4767450350775270E+00    0.0000000000000000E+00    0.0000000000000000E+00    0.0000000000000000E+00    0.0000000000000000E+00    0.0000000000000000E+00
 -0.2807   0.5989    0.4907369486271045E-01    0.0000000000000000E+00    0.0000000000000000E+00   -0.2100267210128081E+00   -0.5684791543295556E+00    0.0000000000000000E+00    0.0000000000000000E+00    0.0000000000000000E+00    0.0000000000000000E+00    0.0000000000000000E+00
 -0.2877   0.5832    0.5280261074841801E-01    0.0000000000000000E+00    0.0000000000000000E+00   -0.1453803883125051E+00   -0.6176400068173297E+00    0.0000000000000000E+00    0.0000000000000000E+00    0.0000000000000000E+00    0.0000000000000000E+00    0.0000000000000000E+00
 -0.2954   0.5658    0.5552696871496663E-01    0.0000000000000000E+00    0.0000000000000000E+00   -0.8142326769543429E-01   -0.6311180933925461E+00    0.0000000000000000E+00    0.0000000000000000E+00    0.0000000000000000E+00    0.0000000000000000E+00    0.0000000000000000E+00
 -0.3039   0.5468    0.5691229660707520E-01    0.0000000000000000E+00    0.0000000000000000E+00   -0.2121065097472830E-01   -0.6357954529210719E+00    0.0000000000000000E+00    0.0000000000000000E+00    0.0000000000000000E+00    0.0000000000000000E+00    0.0000000000000000E+00
 -0.3130   0.5264    0.5677743977829691E-01    0.0000000000000000E+00    0.0000000000000000E+00    0.3255313204795798E-01   -0.6711361172340141E+00    0.0000000000000000E+00    0.0000000000000000E+00    0.0000000000000000E+00    0.0000000000000000E+00    0.0000000000000000E+00
 -0.3227   0.5045    0.5512059636320284E-01    0.0000000000000000E+00    0.0000000000000000E+00    0.7790046655527672E-01   -0.7758454254334155E+00    0.0000000000000000E+00    0.0000000000000000E+00    0.0000000000000000E+00    0.0000000000000000E+00    0.0000000000000000E+00
 -0.3330   0.4814    0.5209136870455450E-01    0.0000000000000000E+00    0.0000000000000000E+00    0.1138788643302222E+00   -0.9767507034042585E+00    0.0000000000000000E+00    0.0000000000000000E+00    0.0000000000000000E+00    0.0000000000000000E+00    0.0000000000000000E+00
 -0.3438   0.4571    0.4793212957389289E-01    0.0000000000000000E+00    0.0000000000000000E+00    0.1406616144168154E+00   -0.1286540721117853E+01    0.0000000000000000E+00    0.0000000000000000E+00    0.0000000000000000E+00    0.0000000000000000E+00    0.0000000000000000E+00
 -0.3551   0.4318    0.4292478158575110E-01    0.0000000000000000E+00    0.0000000000000000E+00    0.1594372651225366E+00   -0.1708862690618163E+01    0.0000000000000000E+00    0.0000000000000000E+00    0.0000000000000000E+00    0.0000000000000000E+00    0.0000000000000000E+00
 -0.3668   0.4054    0.3736374263321943E-01    0.0000000000000000E+00    0.0000000000000000E+00    0.1720703064974937E+00   -0.2243781806565676E+01    0.0000000000000000E+00    0.0000000000000000E+00    0.0000000000000000E+00    0.0000000000000000E+00    0.0000000000000000E+00
 -0.3789   0.3782    0.3155019952945045E-01    0.0000000000000000E+00    0.0000000000000000E+00    0.1806256143043405E+00   -0.2888921129694972E+01    0.0000000000000000E+00    0.0000000000000000E+00    0.0000000000000000E+00    0.0000000000000000E+00    0.0000000000000000E+00
 -0.3914   0.3502    0.2579536137768826E-01    0.0000000000000000E+00    0.0000000000000000E+00    0.1869317977982140E+00   -0.3637147384244040E+01    0.0000000000000000E+00    0.0000000000000000E+00    0.0000000000000000E+00    0.0000000000000000E+00    0.0000000000000000E+00
 -0.4041   0.3216    0.2042279989850549E-01    0.0000000000000000E+00    0.0000000000000000E+00    0.1923358670844807E+00   -0.4473873413359378E+01    0.0000000000000000E+00    0.0000000000000000E+00    0.0000000000000000E+00    0.0000000000000000E+00    0.0000000000000000E+00
 -0.4171   0.2925    0.1576435976052941E-01    0.0000000000000000E+00    0.0000000000000000E+00    0.1976822668321781E+00   -0.5375992858219537E+01    0.0000000000000000E+00    0.0000000000000000E+00    0.0000000000000000E+00    0.0000000000000000E+00    0.0000000000000000E+00
 -0.4302   0.2630    0.1214609141957033E-01    0.0000000000000000E+00    0.0000000000000000E+00    0.2034344324764110E+00   -0.6312746892381109E+01    0.0000000000000000E+00    0.0000000000000000E+00    0.0000000000000000E+00    0.0000000000000000E+00    0.0000000000000000E+00
 -0.4435   0.2332    0.9865561851476285E-02    0.0000000000000000E+00    0.0000000000000000E+00    0.2098271241826288E+00   -0.7247869580096397E+01    0.0000000000000000E+00    0.0000000000000000E+00    0.0000000000000000E+00    0.0000000000000000E+00    0.0000000000000000E+00
 -0.4568   0.2034    0.9164781567742017E-02    0.0000000000000000E+00    0.0000000000000000E+00    0.2169811614068204E+00   -0.8141947136505442E+01    0.0000000000000000E+00    0.0000000000000000E+00    0.0000000000000000E+00    0.0000000000000000E+00    0.0000000000000000E+00
 -0.4701   0.1735    0.1020362764631107E-01    0.0000000000000000E+00    0.0000000000000000E+00    0.2249671679833608E+00   -0.8954156506724862E+01    0.0000000000000000E+00    0.0000000000000000E+00    0.0000000000000000E+00    0.0000000000000000E+00    0.0000000000000000E+00
 -0.4833   0.1437    0.1303577183806354E-01    0.0000000000000000E+00    0.0000000000000000E+00    0.2338329986843416E+00   -0.9643118715079206E+01    0.0000000000000000E+00    0.0000000000000000E+00    0.0000000000000000E+00    0.0000000000000000E+00    0.0000000000000000E+00
 -0.4964   0.1143    0.1758743624428441E-01    0.0000000000000000E+00    0.0000000000000000E+00    0.2436122580870702E+00   -0.1016737350980119E+02    0.0000000000000000E+00    0.0000000000000000E+00    0.0000000000000000E+00    0.0000000000000000E+00    0.0000000000000000E+00
 -0.5094   0.0851    0.2363940340600432E-01    0.0000000000000000E+00    0.0000000000000000E+00    0.2543247573143335E+00   -0.1048645835049041E+02    0.0000000000000000E+00    0.0000000000000000E+00    0.0000000000000000E+00    0.0000000000000000E+00    0.0000000000000000E+00
 -0.5221   0.0565    0.3081628806433177E-01    0.0000000000000000E+00    0.0000000000000000E+00    0.2659739486161280E+00   -0.1056369434613413E+02    0.0000000000000000E+00    0.0000000000000000E+00    0.0000000000000000E+00    0.0000000000000000E+00    0.0000000000000000E+00
 -0.5346   0.0286    0.3859126179790835E-01    0.0000000000000000E+00    0.0000000000000000E+00    0.2785434757779676E+00   -0.1037127429383162E+02    0.0000000000000000E+00    0.0000000000000000E+00    0.0000000000000000E+00    0.0000000000000000E+00    0.0000000000000000E+00
 -0.5467   0.0013    0.4631705845652837E-01    0.0000000000000000E+00    0.0000000000000000E+00    0.2919939601682234E+00   -0.9897277002456150E+01    0.0000000000000000E+00    0.0000000000000000E+00    0.0000000000000000E+00    0.0000000000000000E+00    0.0000000000000000E+00
 -0.5585  -0.0250    0.5329070029099847E-01    0.0000000000000000E+00    0.0000000000000000E+00    0.3062608178474540E+00   -0.9152842775600048E+01    0.0000000000000000E+00    0.0000000000000000E+00    0.0000000000000000E+00    0.0000000000000000E+00    0.0000000000000000E+00
 -0.5698  -0.0504    0.5884875691456446E-01    0.0000000000000000E+00    0.0000000000000000E+00    0.3212535936275715E+00   -0.8176675204515577E+01    0.0000000000000000E+00    0.0000000000000000E+00    0.0000000000000000E+00    0.0000000000000000E+00    0.0000000000000000E+00
 -0.5806  -0.0747    0.6247430553515964E-01    0.0000000000000000E+00    0.0000000000000000E+00    0.3368567217337537E+00   -0.7033935426340788E+01    0.0000000000000000E+00    0.0000000000000000E+00    0.0000000000000000E+00    0.0000000000000000E+00    0.0000000000000000E+00
 -0.5909  -0.0978    0.6388477039214160E-01    0.0000000000000000E+00    0.0000000000000000E+00    0.3529308167907915E+00   -0.5808242552829190E+01    0.0000000000000000E+00    0.0000000000000000E+00    0.0000000000000000E+00    0.0000000000000000E+00    0.0000000000000000E+00
 -0.6006  -0.1196    0.6307088314170887E-01    0.0000000000000000E+00    0.0000000000000000E+00    0.3693129175744274E+00   -0.4588267665696574E+01    0.0000000000000000E+00    0.0000000000000000E+00    0.0000000000000000E+00    0.0000000000000000E+00    0.0000000000000000E+00
 -0.6097  -0.1401    0.6027397331760637E-01    0.0000000000000000E+00    0.0000000000000000E+00    0.3858141627325830E+00   -0.3453053871661095E+01    0.0000000000000000E+00    0.0000000000000000E+00    0.0000000000000000E+00    0.0000000000000000E+00    0.0000000000000000E+00
 -0.6181  -0.1590    0.5591331546953174E-01    0.0000000000000000E+00    0.0000000000000000E+00    0.4022147282701511E+00   -0.2460766545637979E+01    0.0000000000000000E+00    0.0000000000000000E+00    0.0000000000000000E+00    0.0000000000000000E+00    0.0000000000000000E+00
 -0.6259  -0.1764    0.5049267277806917E-01    0.0000000000000000E+00    0.0000000000000000E+00    0.4182584336965120E+00   -0.1643968470514183E+01    0.0000000000000000E+00    0.0000000000000000E+00    0.0000000000000000E+00    0.0000000000000000E+00    0.0000000000000000E+00
 -0.6329  -0.1922    0.4451701095063423E-01    0.0000000000000000E+00    0.0000000000000000E+00    0.4336520191333422E+00   -0.1011419905676832E+01    0.0000000000000000E+00    0.0000000000000000E+00    0.0000000000000000E+00    0.0000000000000000E+00    0.0000000000000000E+00
 -0.6392  -0.2063    0.3843812501890883E-01    0.0000000000000000E+00    0.0000000000000000E+00    0.4480745907003642E+00   -0.5540823075106136E+00    0.0000000000000000E+00    0.0000000000000000E+00    0.0000000000000000E+00    0.0000000000000000E+00    0.0000000000000000E+00
 -0.6447  -0.2186    0.3263197780741692E-01    0.0000000000000000E+00    0.0000000000000000E+00    0.4611994975126450E+00   -0.2517929302786006E+00    0.0000000000000000E+00    0.0000000000000000E+00    0.0000000000000000E+00    0.0000000000000000E+00    0.0000000000000000E+00
 -0.6493  -0.2292    0.2739758579185425E-01    0.0000000000000000E+00    0.0000000000000000E+00    0.4727246497540405E+00   -0.7802232390517626E-01    0.0000000000000000E+00    0.0000000000000000E+00    0.0000000000000000E+00    0.0000000000000000E+00    0.0000000000000000E+00
 -0.6532  -0.2378    0.2296241405477551E-01    0.0000000000000000E+00    0.0000000000000000E+00    0.4824014993407140E+00   -0.1390285085136100E-02    0.0000000000000000E+00    0.0000000000000000E+00    0.0000000000000000E+00    0.0000000000000000E+00    0.0000000000000000E+00
 -0.6562  -0.2446    0.1948063719657878E-01    0.0000000000000000E+00    0.0000000000000000E+00    0.4900518068761560E+00    0.1387329437627176E-01    0.0000000000000000E+00    0.0000000000000000E+00    0.0000000000000000E+00    0.0000000000000000E+00    0.0000000000000000E+00
 -0.6584  -0.2495    0.1702244769410861E-01    0.0000000000000000E+00    0.0000000000000000E+00    0.4955665601871838E+00    0.5330044636214294E-02    0.0000000000000000E+00    0.0000000000000000E+00    0.0000000000000000E+00    0.0000000000000000E+00    0.0000000000000000E+00
 -0.6597  -0.2524    0.1556721111897802E-01    0.0000000000000000E+00    0.0000000000000000E+00    0.4988902122198005E+00   -0.5880261066264615E-04    0.0000000000000000E+00    0.0000000000000000E+00    0.0000000000000000E+00    0.0000000000000000E+00    0.0000000000000000E+00
 -0.6601  -0.2534    0.1508211218779317E-01    0.0000000000000000E+00    0.0000000000000000E+00    0.5000000000000000E+00    0.0000000000000000E+00    0.0000000000000000E+00    0.0000000000000000E+00    0.0000000000000000E+00    0.0000000000000000E+00    0.0000000000000000E+00
 -0.2524   0.6597    0.2532892790903204E-01    0.0000000000000000E+00    0.0000000000000000E+00   -0.5000000000000000E+00    0.3359139302408466E-03    0.0000000000000000E+00    0.0000000000000000E+00    0.0000000000000000E+00    0.0000000000000000E+00    0.0000000000000000E+00
 -0.2529   0.6587    0.2581410606393639E-01    0.3671088641637976E-07   -0.3657467760084405E-07   -0.4951464021075466E+00   -0.6484596226850969E-03   -0.1217808418657523E-10    0.3173958217561265E-09   -0.7603212764245582E-12   -0.7599914621236881E-12    0.1084711508982095E-10
 -0.2542   0.6558    0.2722507605674492E-01    0.6207206788292598E-05   -0.2008867519920554E-05   -0.4806092091686853E+00   -0.7481910885205675E-02   -0.3060032532965995E-08    0.3122072552742827E-09   -0.1385387464469812E-11   -0.1107468283745305E-11    0.4290772077919502E-10
 -0.2563   0.6509    0.2948316088040077E-01    0.3966158654121916E-04   -0.4632701421531724E-05   -0.4564765006192353E+00   -0.3719402923823854E-01   -0.2129307070952593E-07    0.3074734095803722E-09   -0.1305107714608122E-11   -0.1083886452812877E-11    0.9646855536615817E-10
 -0.2594   0.6441    0.3252343556632194E-01    0.1163354044887085E-03   -0.6283200790812790E-05   -0.4229561940294159E+00   -0.1054906966280127E+00   -0.6288905175376499E-07    0.3044956595893433E-09   -0.9575916448678612E-12   -0.1125984722127882E-11    0.1726823267711453E-09
 -0.2632   0.6355    0.3624604232694548E-01    0.2323630134682729E-03   -0.6698461687323147E-05   -0.3804777627006873E+00   -0.2101028964778413E+00   -0.1257235742535164E-06    0.3027564275670525E-09   -0.5825270821269157E-12   -0.1098482416139746E-11    0.2715625675719924E-09
 -0.2679   0.6249    0.4046636156001909E-01    0.3683777719084984E-03   -0.5897196304244361E-05   -0.3298387224759563E+00   -0.3340854931770361E+00   -0.1990863155637899E-06    0.3019571762769013E-09   -0.4338820969174151E-12   -0.1107329505867227E-11    0.3966048045533910E-09
 -0.2734   0.6126    0.4490111545517333E-01    0.4977835547566731E-03   -0.4353618775243243E-05   -0.2723645489696953E+00   -0.4533000743505023E+00   -0.2686809581657125E-06    0.3010149993848410E-09   -0.7197992202279124E-12   -0.1048973408135367E-11    0.5503935501804946E-09
 -0.2797   0.5985    0.4917765553888077E-01    0.5961615217025873E-03   -0.2509178483991711E-05   -0.2100163201179289E+00   -0.5453595976632253E+00   -0.3212998870817328E-06    0.2986258029052946E-09   -0.1518035697145592E-11   -0.1044867317667730E-11    0.7388606393377017E-09
 -0.2867   0.5827    0.5287078332601285E-01    0.6509284716612046E-03   -0.9583793197543092E-06   -0.1453683157844569E+00   -0.5985159456217677E+00   -0.3502443152081267E-06    0.2930439070656515E-09   -0.2832498124938354E-11   -0.1024755801048993E-11    0.9671209527661873E-09
 -0.2945   0.5653    0.5556343436558606E-01    0.6690385278615377E-03   -0.1635552325248126E-06   -0.8141021815354912E-01   -0.6188797290111467E+00   -0.3592805368961986E-06    0.2822662266139912E-09   -0.4610350295974897E-11   -0.1041254105507705E-11    0.1237323715708172E-08
 -0.3029   0.5464    0.5692379342676149E-01    0.6784722025516865E-03   -0.4225476782892739E-06   -0.2119745635072959E-01   -0.6318277299744578E+00   -0.3635483361039443E-06    0.2638341846427153E-09   -0.6755150258608289E-11   -0.9860753706625314E-12    0.1543070046738926E-08
 -0.3120   0.5259    0.5677159768141882E-01    0.7205661954402008E-03   -0.1651235801636624E-05    0.3256564169436910E-01   -0.6751257037532705E+00   -0.3853209681329582E-06    0.2352867748724174E-09   -0.9103889517247943E-11   -0.9862458072440461E-12    0.1864070717227939E-08
 -0.3217   0.5041    0.5510422971888786E-01    0.8360744112293502E-03   -0.3527656720988201E-05    0.7791156952791692E-01   -0.7861998831877048E+00   -0.4465434075360561E-06    0.1946058834911835E-09   -0.1143602920694597E-10   -0.9218147078993155E-12    0.2163744641792142E-08
 -0.3320   0.4810    0.5206973147617084E-01    0.1053444676349104E-02   -0.5633193152427916E-05    0.1138880267406913E+00   -0.9913765936258634E+00   -0.5624864048750775E-06    0.1409343301783661E-09   -0.1348563621883514E-10   -0.9098381770211716E-12    0.2393665612943074E-08
 -0.3428   0.4567    0.4790908576855455E-01    0.1386287231486833E-02   -0.7715351574833667E-05    0.1406685606301174E+00   -0.1303395212637661E+01   -0.7404328456358926E-06    0.7490613337934882E-10   -0.1499193130749532E-10   -0.8661543704491237E-12    0.2505145285658372E-08
 -0.3541   0.4313    0.4290324194278783E-01    0.1838573898814938E-02   -0.9674883912781098E-05    0.1594420228135551E+00   -0.1726032806155869E+01   -0.9824978181917505E-06   -0.1298093577073445E-11   -0.1569104568499569E-10   -0.8311337729161039E-12    0.2465997465256331E-08
 -0.3658   0.4050    0.3734576745326672E-01    0.2410307655673712E-02   -0.1151557445635012E-04    0.1720731819636164E+00   -0.2259229088947427E+01   -0.1288691771330626E-05   -0.8449320756942491E-10   -0.1527476062301858E-10   -0.7546324676255267E-12    0.2273178492662176E-08
 -0.3780   0.3777    0.3153681353879487E-01    0.3098736900654463E-02   -0.1320145278951746E-04    0.1806270819225622E+00   -0.2900219514923168E+01   -0.1657583848460355E-05   -0.1709068338240360E-09   -0.1340249439207852E-10   -0.7073855390338224E-12    0.1954553414951210E-08
 -0.3904   0.3498    0.2578639266553906E-01    0.3895959856359482E-02   -0.1465965345704970E-04    0.1869323492575967E+00   -0.3641374486270578E+01   -0.2084984848019040E-05   -0.2565760832962116E-09   -0.9739712508727294E-11   -0.6106226635438361E-12    0.1557688232307203E-08
 -0.4032   0.3212    0.2041692643123493E-01    0.4786129953016954E-02   -0.1576888836207902E-04    0.1923358943966857E+00   -0.4467674468528694E+01   -0.2562462317009397E-05   -0.3374180691795292E-09   -0.4102281014883857E-11   -0.5276612480287213E-12    0.1132641140057754E-08
 -0.4161   0.2920    0.1575933804942949E-01    0.5744384240322523E-02   -0.1642285311874014E-04    0.1976820207790534E+00   -0.5355777855606669E+01   -0.3076720432064851E-05   -0.4091765259950364E-09    0.3490929767480111E-11   -0.4691802502065912E-12    0.7200779139626690E-09
 -0.4292   0.2626    0.1213904781394470E-01    0.6737816217651396E-02   -0.1652874664584176E-04    0.2034340436865748E+00   -0.6274964883764098E+01   -0.3610153140370858E-05   -0.4671998031502422E-09    0.1272479344116562E-10   -0.3889527588896158E-12    0.3451343807102381E-09
 -0.4425   0.2328    0.9853260749055981E-02    0.7727785315481603E-02   -0.1603825494528355E-04    0.2098266474898926E+00   -0.7189315463290122E+01   -0.4142031520785670E-05   -0.5067326940000338E-09    0.2305219903853128E-10   -0.2954303468527542E-12    0.1966195695840556E-10
 -0.4558   0.2029    0.9143786272436600E-02    0.8672436093677372E-02   -0.1491638777393951E-04    0.2169806136717061E+00   -0.8060045175411354E+01   -0.4649905891506178E-05   -0.5234224616235128E-09    0.3375577595221557E-10   -0.2171596236166806E-12   -0.2526034650549014E-09
 -0.4691   0.1731    0.1017036036921884E-01    0.9528544009619864E-02   -0.1314400374969500E-04    0.2249665504828165E+00   -0.8847228020587171E+01   -0.5110537943594845E-05   -0.5139005887500048E-09    0.4411382370506090E-10   -0.1746519595613449E-12   -0.4732919394942470E-09
 -0.4823   0.1433    0.1298647698280870E-01    0.1025242655973915E-01   -0.1068532140246055E-04    0.2338323076145391E+00   -0.9510630005665190E+01   -0.5500453818286178E-05   -0.4764075071939100E-09    0.5341016517945718E-10   -0.1245253899995191E-12   -0.6453403367245869E-09
 -0.4955   0.1138    0.1751815809789081E-01    0.1080045927709874E-01   -0.7504836335017550E-05    0.2436114889059690E+00   -0.1001021631707910E+02   -0.5796147333404846E-05   -0.4111163545011953E-09    0.6105338457018661E-10   -0.1119659920334470E-12   -0.7729638014722373E-09
 -0.5084   0.0847    0.2354604057845863E-01    0.1113024038858130E-01   -0.3571364683276442E-05    0.2543239065964991E+00   -0.1030722816107143E+02   -0.5974780524803614E-05   -0.3202772465640824E-09    0.6659128803931935E-10   -0.9018133462213029E-13   -0.8595631238034196E-09
 -0.5212   0.0561    0.3069486393169103E-01    0.1120354716497049E-01    0.1088510302601509E-05    0.2659730149687026E+00   -0.1036694301320935E+02   -0.6015684129294841E-05   -0.2081073291124169E-09    0.6972733501697803E-10   -0.1190644804971441E-12   -0.9098499488546796E-09
 -0.5336   0.0281    0.3843841059782434E-01    0.1099169290026201E-01    0.6354822985560032E-05    0.2785424601973946E+00   -0.1016356868141167E+02   -0.5903336465818237E-05   -0.8059368970803060E-10    0.7029110626888269E-10   -0.1486866185729241E-12   -0.9275249492068927E-09
 -0.5457   0.0009    0.4613074301494319E-01    0.1048285614090013E-01    0.1196074085106255E-04    0.2919928657515460E+00   -0.9686950871860542E+01   -0.5631213438816027E-05    0.5483791892801904E-10    0.6827693965760773E-10   -0.1643199465384271E-12   -0.9171020384085571E-09
 -0.5575  -0.0255    0.5307093767826948E-01    0.9689522088658647E-02    0.1749541359580383E-04    0.3062596487220369E+00   -0.8949266286447783E+01   -0.5205930789527449E-05    0.1901903842749242E-09    0.6384237583034746E-10   -0.1823818873702976E-12   -0.8827380076903424E-09
 -0.5688  -0.0508    0.5859816151095108E-01    0.8653068413488871E-02    0.2243808427623995E-04    0.3212523532095500E+00   -0.7989125481460597E+01   -0.4649611161597107E-05    0.3176533897031319E-09    0.5741079833754270E-10   -0.2050443148604586E-12   -0.8290674761296524E-09
 -0.5796  -0.0751    0.6219809972957469E-01    0.7442473863958378E-02    0.2626729143637540E-04    0.3368554109138378E+00   -0.6870222445388400E+01   -0.3999355930306687E-05    0.4308096449023857E-09    0.4957168009411816E-10   -0.1957878303926464E-12   -0.7614097841807110E-09
 -0.5899  -0.0982    0.6359022252183066E-01    0.6145848255869627E-02    0.2857877766398698E-04    0.3529294331992014E+00   -0.5673559536194623E+01   -0.3302533163022890E-05    0.5254461171722014E-09    0.4105149553623733E-10   -0.1933175841628554E-12   -0.6837328498515705E-09
 -0.5996  -0.1201    0.6276618448418336E-01    0.4856385840239921E-02    0.2919671528343033E-04    0.3693114573632936E+00   -0.4484554434656317E+01   -0.2609386820071219E-05    0.6000049346255310E-09    0.3259387204579411E-10   -0.2235434060082753E-12   -0.6013097433171799E-09
 -0.6087  -0.1405    0.5996701411648069E-01    0.3657042924140347E-02    0.2820077064601641E-04    0.3858126258904057E+00   -0.3379161573144171E+01   -0.1964557841686599E-05    0.6554018577853427E-09    0.2479744187766642E-10   -0.1815214645262131E-12   -0.5173740220965062E-09
 -0.6171  -0.1594    0.5561063417398677E-01    0.2608834953237509E-02    0.2588249276482088E-04    0.4022131270577873E+00   -0.2413180838778651E+01   -0.1400997305898359E-05    0.6942117020125593E-09    0.1806349514410499E-10   -0.2277761312896587E-12   -0.4351725785278759E-09
 -0.6249  -0.1769    0.5019901886311619E-01    0.1745926840555296E-02    0.2263293348440468E-04    0.4182568015850147E+00   -0.1617904011014876E+01   -0.9370363815696019E-06    0.7198055762547284E-09    0.1256013348882590E-10   -0.2081668171172169E-12   -0.3577574642782411E-09
 -0.6319  -0.1926    0.4423537952533519E-01    0.1077523017167760E-02    0.1882990497275826E-04    0.4336504156509842E+00   -0.1001732955853361E+01   -0.5777279383664564E-06    0.7355427378286095E-09    0.8281025171141820E-11   -0.2026157019940911E-12   -0.2862389405361432E-09
 -0.6382  -0.2067    0.3817029089169552E-01    0.5940951805470864E-03    0.1475623846666122E-04    0.4480730974345759E+00   -0.5559503012291993E+00   -0.3178314005109181E-06    0.7443410575402876E-09    0.5107634367534919E-11   -0.2259303855112194E-12   -0.2214707254394321E-09
 -0.6437  -0.2191    0.3237891584306293E-01    0.2743160573393855E-03    0.1059268089937833E-04    0.4611982032235409E+00   -0.2608201269435680E+00   -0.1460255819042211E-06    0.7485759789815916E-09    0.2890476052952451E-11   -0.2540814780793710E-12   -0.1642403955892657E-09
 -0.6484  -0.2296    0.2715967134608198E-01    0.8994611631504688E-04    0.6492803583832324E-05    0.4727236276193874E+00   -0.9019067402599094E-01   -0.4698999326750433E-07    0.7500821439659910E-09    0.1477699906882179E-11   -0.2619744698950655E-12   -0.1146630177958907E-09
 -0.6522  -0.2383    0.2273865115821240E-01    0.7495091844831601E-05    0.2749806931037077E-05    0.4824007844280659E+00   -0.1275292859477803E-01   -0.3005335314639311E-08    0.7503734768959935E-09    0.7222590581168475E-12   -0.2864063153307228E-12   -0.7369142449031862E-10
 -0.6553  -0.2451    0.1926718672892126E-01   -0.1115094445766969E-04   -0.7633552827084429E-07    0.4900513839505564E+00    0.6752973998563584E-02    0.6683383733500455E-08    0.7505430152058440E-09    0.4332124936556880E-12   -0.2913030060225363E-12   -0.4162560270429272E-10
 -0.6574  -0.2499    0.1681067917221584E-01   -0.4928536948675007E-05   -0.1183677948259052E-05    0.4955663683752297E+00    0.3941636628349270E-02    0.2698559741329060E-08    0.7514368138145100E-09    0.3805991979910495E-12   -0.3194220062063824E-12   -0.1851445927993078E-10
 -0.6587  -0.2529    0.1535308905181388E-01   -0.2011128398957204E-06   -0.2011357798862114E-06    0.4988901640451129E+00    0.7006760260878569E-03    0.1713774722834741E-09    0.7528249435515347E-09    0.1972272714069467E-12   -0.2268124923987536E-12   -0.4489527347974198E-11
 -0.6592  -0.2538    0.1486774841161858E-01    0.0000000000000000E+00    0.0000000000000000E+00    0.5000000000000000E+00   -0.5847754854922831E-04    0.0000000000000000E+00    0.0000000000000000E+00    0.0000000000000000E+00    0.0000000000000000E+00    0.0000000000000000E+00
 -0.2495   0.6584    0.2600112935268143E-01    0.0000000000000000E+00    0.0000000000000000E+00   -0.5000000000000000E+00   -0.4534740378738107E-02    0.0000000000000000E+00    0.0000000000000000E+00    0.0000000000000000E+00    0.0000000000000000E+00    0.0000000000000000E+00
 -0.2499   0.6574    0.2647838718932604E-01    0.2007485673825315E-05   -0.6204781131197681E-05   -0.4951443132230205E+00   -0.7480604036187370E-02   -0.3058472870429827E-08    0.3125352407429283E-09   -0.1086586333062800E-11   -0.1475066596645647E-11    0.1092442401730981E-10
 -0.2512   0.6545    0.2787985158552698E-01    0.3149222476788767E-04   -0.3149643400184384E-04   -0.4806007738894824E+00   -0.1608476296090473E-01   -0.6254067304191762E-07    0.3104939118314665E-09   -0.3168879004686320E-11   -0.3581482332926100E-11    0.4285470112455614E-10
 -0.2534   0.6496    0.3013292251771597E-01    0.1526113108769507E-03   -0.6741228995035351E-04   -0.4564569789885736E+00   -0.3824296757543008E-01   -0.3329987872656396E-06    0.3072194824926822E-09   -0.4032218135774368E-11   -0.4416959853426050E-11    0.9660972889735664E-10
 -0.2564   0.6428    0.3315329556162386E-01    0.4241385480756415E-03   -0.9343326417792937E-04   -0.4229199490043771E+00   -0.8901754243544661E-01   -0.9452878175514332E-06    0.3043709312366971E-09   -0.3506776466433159E-11   -0.4612161347283816E-11    0.1723437816070206E-09
 -0.2603   0.6342    0.3682936005701758E-01    0.8449582164770826E-03   -0.1009606364394949E-03   -0.3804185622357091E+00   -0.1728406357498778E+00   -0.1885004805795256E-05    0.3025090802855068E-09   -0.2636439677683455E-11   -0.4479135812252011E-11    0.2714599378617066E-09
 -0.2650   0.6236    0.4097703923041784E-01    0.1351751037361131E-02   -0.9080934737868272E-04   -0.3297509692986161E+00   -0.2792483650023321E+00   -0.3003213764530821E-05    0.3013254645800600E-09   -0.2480057825771098E-11   -0.4242529938469630E-11    0.3961181868628039E-09
 -0.2705   0.6113    0.4531875275343388E-01    0.1848352128418294E-02   -0.6843375931916177E-04   -0.2722450819151434E+00   -0.3886921408010595E+00   -0.4084658523775200E-05    0.2999685153048937E-09   -0.3860578523529057E-11   -0.3982401214353004E-11    0.5500970165495112E-09
 -0.2767   0.5972    0.4949117525427166E-01    0.2242738120734565E-02   -0.4127909855007755E-04   -0.2098660820618938E+00   -0.4813161729054050E+00   -0.4927093068514599E-05    0.2971340951063439E-09   -0.7167794136009320E-11   -0.3732385928101323E-11    0.7385028491513346E-09