 title="result"
 variables="x","y","P","u","v","t","omega","psi","RES1","RES2","RES3","RES4"
zone,j= 49,i= 49,f=point
 -0.1830   0.6830    0.2425381611187540E-01    0.0000000000000000E+00    0.0000000000000000E+00   -0.5000000000000000E+00    0.0000000000000000E+00    0.0000000000000000E+00    0.0000000000000000E+00    0.0000000000000000E+00    0.0000000000000000E+00    0.0000000000000000E+00
 -0.1835   0.6821    0.2471511432093248E-01    0.0000000000000000E+00    0.0000000000000000E+00   -0.4948835104205793E+00    0.5488934924509806E-03    0.0000000000000000E+00    0.0000000000000000E+00    0.0000000000000000E+00    0.0000000000000000E+00    0.0000000000000000E+00
 -0.1852   0.6793    0.2603839998947123E-01    0.0000000000000000E+00    0.0000000000000000E+00   -0.4795592140124584E+00   -0.4906564359787095E-02    0.0000000000000000E+00    0.0000000000000000E+00    0.0000000000000000E+00    0.0000000000000000E+00    0.0000000000000000E+00
 -0.1878   0.6747    0.2814203854917065E-01    0.0000000000000000E+00    0.0000000000000000E+00   -0.4541228111018634E+00   -0.4898805573574174E-01    0.0000000000000000E+00    0.0000000000000000E+00    0.0000000000000000E+00    0.0000000000000000E+00    0.0000000000000000E+00
 -0.1915   0.6683    0.3100601129766540E-01    0.0000000000000000E+00    0.0000000000000000E+00   -0.4188067417846175E+00   -0.1563283395123972E+00    0.0000000000000000E+00    0.0000000000000000E+00    0.0000000000000000E+00    0.0000000000000000E+00    0.0000000000000000E+00
 -0.1963   0.6600    0.3458957858520283E-01    0.0000000000000000E+00    0.0000000000000000E+00   -0.3741064045363804E+00   -0.3223769792707656E+00    0.0000000000000000E+00    0.0000000000000000E+00    0.0000000000000000E+00    0.0000000000000000E+00    0.0000000000000000E+00
 -0.2020   0.6501    0.3875523002244758E-01    0.0000000000000000E+00    0.0000000000000000E+00   -0.3209652699963931E+00   -0.5196253994369350E+00    0.0000000000000000E+00    0.0000000000000000E+00    0.0000000000000000E+00    0.0000000000000000E+00    0.0000000000000000E+00
 -0.2088   0.6384    0.4324217749975291E-01    0.0000000000000000E+00    0.0000000000000000E+00   -0.2609696712223042E+00   -0.7086073736136446E+00    0.0000000000000000E+00    0.0000000000000000E+00    0.0000000000000000E+00    0.0000000000000000E+00    0.0000000000000000E+00
 -0.2165   0.6250    0.4766962791863961E-01    0.0000000000000000E+00    0.0000000000000000E+00   -0.1964517501442786E+00   -0.8515262264918706E+00    0.0000000000000000E+00    0.0000000000000000E+00    0.0000000000000000E+00    0.0000000000000000E+00    0.0000000000000000E+00
 -0.2251   0.6100    0.5158089686917011E-01    0.0000000000000000E+00    0.0000000000000000E+00   -0.1303926623720857E+00   -0.9257686568241432E+00    0.0000000000000000E+00    0.0000000000000000E+00    0.0000000000000000E+00    0.0000000000000000E+00    0.0000000000000000E+00
 -0.2347   0.5935    0.5451720746130210E-01    0.0000000000000000E+00    0.0000000000000000E+00   -0.6609103468406852E-01   -0.9342903248374477E+00    0.0000000000000000E+00    0.0000000000000000E+00    0.0000000000000000E+00    0.0000000000000000E+00    0.0000000000000000E+00
 -0.2451   0.5756    0.5611198741004050E-01    0.0000000000000000E+00    0.0000000000000000E+00   -0.6682073291065787E-02   -0.9077407618697438E+00    0.0000000000000000E+00    0.0000000000000000E+00    0.0000000000000000E+00    0.0000000000000000E+00    0.0000000000000000E+00
 -0.2562   0.5562    0.5617016196171277E-01    0.0000000000000000E+00    0.0000000000000000E+00    0.4533091345170388E-01   -0.8948788459447381E+00    0.0000000000000000E+00    0.0000000000000000E+00    0.0000000000000000E+00    0.0000000000000000E+00    0.0000000000000000E+00
 -0.2682   0.5355    0.5469712209377001E-01    0.0000000000000000E+00    0.0000000000000000E+00    0.8839849951516458E-01   -0.9448785735441488E+00    0.0000000000000000E+00    0.0000000000000000E+00    0.0000000000000000E+00    0.0000000000000000E+00    0.0000000000000000E+00
 -0.2808   0.5136    0.5186149001119482E-01    0.0000000000000000E+00    0.0000000000000000E+00    0.1220543740353188E+00   -0.1092033862332803E+01    0.0000000000000000E+00    0.0000000000000000E+00    0.0000000000000000E+00    0.0000000000000000E+00    0.0000000000000000E+00
 -0.2941   0.4906    0.4792198542406115E-01    0.0000000000000000E+00    0.0000000000000000E+00    0.1468642455019069E+00   -0.1351839858159809E+01    0.0000000000000000E+00    0.0000000000000000E+00    0.0000000000000000E+00    0.0000000000000000E+00    0.0000000000000000E+00
 -0.3080   0.4665    0.4316393635894939E-01    0.0000000000000000E+00    0.0000000000000000E+00    0.1642137636365552E+00   -0.1727170764451736E+01    0.0000000000000000E+00    0.0000000000000000E+00    0.0000000000000000E+00    0.0000000000000000E+00    0.0000000000000000E+00
 -0.3224   0.4415    0.3787109915704587E-01    0.0000000000000000E+00    0.0000000000000000E+00    0.1759635815217128E+00   -0.2215983724004572E+01    0.0000000000000000E+00    0.0000000000000000E+00    0.0000000000000000E+00    0.0000000000000000E+00    0.0000000000000000E+00
 -0.3373   0.4157    0.3232422851221717E-01    0.0000000000000000E+00    0.0000000000000000E+00    0.1840464162875334E+00   -0.2814268374073123E+01    0.0000000000000000E+00    0.0000000000000000E+00    0.0000000000000000E+00    0.0000000000000000E+00    0.0000000000000000E+00
 -0.3527   0.3892    0.2680927696425141E-01    0.0000000000000000E+00    0.0000000000000000E+00    0.1901259406613913E+00   -0.3514652155265098E+01    0.0000000000000000E+00    0.0000000000000000E+00    0.0000000000000000E+00    0.0000000000000000E+00    0.0000000000000000E+00
 -0.3683   0.3621    0.2162308965867751E-01    0.0000000000000000E+00    0.0000000000000000E+00    0.1954177323644259E+00   -0.4303947055931046E+01    0.0000000000000000E+00    0.0000000000000000E+00    0.0000000000000000E+00    0.0000000000000000E+00    0.0000000000000000E+00
 -0.3842   0.3345    0.1707232065197466E-01    0.0000000000000000E+00    0.0000000000000000E+00    0.2006880873564687E+00   -0.5161928081258432E+01    0.0000000000000000E+00    0.0000000000000000E+00    0.0000000000000000E+00    0.0000000000000000E+00    0.0000000000000000E+00
 -0.4004   0.3065    0.1346302192038632E-01    0.0000000000000000E+00    0.0000000000000000E+00    0.2063642416889468E+00   -0.6061763642372021E+01    0.0000000000000000E+00    0.0000000000000000E+00    0.0000000000000000E+00    0.0000000000000000E+00    0.0000000000000000E+00
 -0.4167   0.2783    0.1108240949789475E-01    0.0000000000000000E+00    0.0000000000000000E+00    0.2126676921081546E+00   -0.6971595707154113E+01    0.0000000000000000E+00    0.0000000000000000E+00    0.0000000000000000E+00    0.0000000000000000E+00    0.0000000000000000E+00
 -0.4330   0.2500    0.1017601306596829E-01    0.0000000000000000E+00    0.0000000000000000E+00    0.2197154097121929E+00   -0.7856333270068776E+01    0.0000000000000000E+00    0.0000000000000000E+00    0.0000000000000000E+00    0.0000000000000000E+00    0.0000000000000000E+00
 -0.4494   0.2217    0.1092433202753176E-01    0.0000000000000000E+00    0.0000000000000000E+00    0.2275772695985104E+00   -0.8678899873152707E+01    0.0000000000000000E+00    0.0000000000000000E+00    0.0000000000000000E+00    0.0000000000000000E+00    0.0000000000000000E+00
 -0.4656   0.1935    0.1342022759409015E-01    0.0000000000000000E+00    0.0000000000000000E+00    0.2363014652320536E+00   -0.9400609526861230E+01    0.0000000000000000E+00    0.0000000000000000E+00    0.0000000000000000E+00    0.0000000000000000E+00    0.0000000000000000E+00
 -0.4818   0.1655    0.1764685701016551E-01    0.0000000000000000E+00    0.0000000000000000E+00    0.2459226928031435E+00   -0.9981090298472070E+01    0.0000000000000000E+00    0.0000000000000000E+00    0.0000000000000000E+00    0.0000000000000000E+00    0.0000000000000000E+00
 -0.4977   0.1379    0.2345558486538511E-01    0.0000000000000000E+00    0.0000000000000000E+00    0.2564626826306279E+00   -0.1037867891607338E+02    0.0000000000000000E+00    0.0000000000000000E+00    0.0000000000000000E+00    0.0000000000000000E+00    0.0000000000000000E+00
 -0.5134   0.1108    0.3054697079140706E-01    0.0000000000000000E+00    0.0000000000000000E+00    0.2679276818911063E+00   -0.1055250399097002E+02    0.0000000000000000E+00    0.0000000000000000E+00    0.0000000000000000E+00    0.0000000000000000E+00    0.0000000000000000E+00
 -0.5287   0.0843    0.3846261127017730E-01    0.0000000000000000E+00    0.0000000000000000E+00    0.2803048974201388E+00   -0.1046713945366955E+02    0.0000000000000000E+00    0.0000000000000000E+00    0.0000000000000000E+00    0.0000000000000000E+00    0.0000000000000000E+00
 -0.5436   0.0585    0.4660025632218543E-01    0.0000000000000000E+00    0.0000000000000000E+00    0.2935589893967458E+00   -0.1009990057008348E+02    0.0000000000000000E+00    0.0000000000000000E+00    0.0000000000000000E+00    0.0000000000000000E+00    0.0000000000000000E+00
 -0.5580   0.0335    0.5426376843538462E-01    0.0000000000000000E+00    0.0000000000000000E+00    0.3076294523743670E+00   -0.9449377092331058E+01    0.0000000000000000E+00    0.0000000000000000E+00    0.0000000000000000E+00    0.0000000000000000E+00    0.0000000000000000E+00
 -0.5719   0.0094    0.6075093506773948E-01    0.0000000000000000E+00    0.0000000000000000E+00    0.3224294928628713E+00   -0.8542380816930519E+01    0.0000000000000000E+00    0.0000000000000000E+00    0.0000000000000000E+00    0.0000000000000000E+00    0.0000000000000000E+00
 -0.5852  -0.0136    0.6546550386520393E-01    0.0000000000000000E+00    0.0000000000000000E+00    0.3378465015561021E+00   -0.7435753210585627E+01    0.0000000000000000E+00    0.0000000000000000E+00    0.0000000000000000E+00    0.0000000000000000E+00    0.0000000000000000E+00
 -0.5978  -0.0355    0.6802315727795794E-01    0.0000000000000000E+00    0.0000000000000000E+00    0.3537434034123854E+00   -0.6210652476240734E+01    0.0000000000000000E+00    0.0000000000000000E+00    0.0000000000000000E+00    0.0000000000000000E+00    0.0000000000000000E+00
 -0.6098  -0.0562    0.6831558035378164E-01    0.0000000000000000E+00    0.0000000000000000E+00    0.3699593529198962E+00   -0.4959728152218831E+01    0.0000000000000000E+00    0.0000000000000000E+00    0.0000000000000000E+00    0.0000000000000000E+00    0.0000000000000000E+00
 -0.6210  -0.0756    0.6650980288139467E-01    0.0000000000000000E+00    0.0000000000000000E+00    0.3863080513160352E+00   -0.3770994343304278E+01    0.0000000000000000E+00    0.0000000000000000E+00    0.0000000000000000E+00    0.0000000000000000E+00    0.0000000000000000E+00
 -0.6314  -0.0935    0.6298631467473617E-01    0.0000000000000000E+00    0.0000000000000000E+00    0.4025730723015538E+00   -0.2713750743959334E+01    0.0000000000000000E+00    0.0000000000000000E+00    0.0000000000000000E+00    0.0000000000000000E+00    0.0000000000000000E+00
 -0.6409  -0.1100    0.5824324151366608E-01    0.0000000000000000E+00    0.0000000000000000E+00    0.4185021365285670E+00   -0.1830927306671370E+01    0.0000000000000000E+00    0.0000000000000000E+00    0.0000000000000000E+00    0.0000000000000000E+00    0.0000000000000000E+00
 -0.6495  -0.1250    0.5280204489792178E-01    0.0000000000000000E+00    0.0000000000000000E+00    0.4338052186163999E+00   -0.1138924019880680E+01    0.0000000000000000E+00    0.0000000000000000E+00    0.0000000000000000E+00    0.0000000000000000E+00    0.0000000000000000E+00
 -0.6572  -0.1384    0.4714029593104554E-01    0.0000000000000000E+00    0.0000000000000000E+00    0.4481624717369155E+00   -0.6330515651291347E+00    0.0000000000000000E+00    0.0000000000000000E+00    0.0000000000000000E+00    0.0000000000000000E+00    0.0000000000000000E+00
 -0.6640  -0.1501    0.4165957213379210E-01    0.0000000000000000E+00    0.0000000000000000E+00    0.4612451488798053E+00   -0.2946943766425942E+00    0.0000000000000000E+00    0.0000000000000000E+00    0.0000000000000000E+00    0.0000000000000000E+00    0.0000000000000000E+00
 -0.6697  -0.1600    0.3667986390333126E-01    0.0000000000000000E+00    0.0000000000000000E+00    0.4727462554362005E+00   -0.9698478920885943E-01    0.0000000000000000E+00    0.0000000000000000E+00    0.0000000000000000E+00    0.0000000000000000E+00    0.0000000000000000E+00
 -0.6745  -0.1683    0.3244439774245232E-01    0.0000000000000000E+00    0.0000000000000000E+00    0.4824110911817141E+00   -0.6987957893264708E-02    0.0000000000000000E+00    0.0000000000000000E+00    0.0000000000000000E+00    0.0000000000000000E+00    0.0000000000000000E+00
 -0.6782  -0.1747    0.2911817719536443E-01    0.0000000000000000E+00    0.0000000000000000E+00    0.4900559329377433E+00    0.1358278883193545E-01    0.0000000000000000E+00    0.0000000000000000E+00    0.0000000000000000E+00    0.0000000000000000E+00    0.0000000000000000E+00
 -0.6809  -0.1793    0.2677664184590558E-01    0.0000000000000000E+00    0.0000000000000000E+00    0.4955681713820921E+00    0.5740615309930802E-02    0.0000000000000000E+00    0.0000000000000000E+00    0.0000000000000000E+00    0.0000000000000000E+00    0.0000000000000000E+00
 -0.6825  -0.1821    0.2539602182800491E-01    0.0000000000000000E+00    0.0000000000000000E+00    0.4988906020913098E+00   -0.3815574866341333E-04    0.0000000000000000E+00    0.0000000000000000E+00    0.0000000000000000E+00    0.0000000000000000E+00    0.0000000000000000E+00
 -0.6830  -0.1830    0.2493668971932148E-01    0.0000000000000000E+00    0.0000000000000000E+00    0.5000000000000000E+00    0.0000000000000000E+00    0.0000000000000000E+00    0.0000000000000000E+00    0.0000000000000000E+00    0.0000000000000000E+00    0.0000000000000000E+00
 -0.1821   0.6825    0.2452133727179872E-01    0.0000000000000000E+00    0.0000000000000000E+00   -0.5000000000000000E+00    0.5495354567736056E-03    0.0000000000000000E+00    0.0000000000000000E+00    0.0000000000000000E+00    0.0000000000000000E+00    0.0000000000000000E+00
 -0.1826   0.6816    0.2498126724225829E-01   -0.4344299639530335E-07    0.4381943387210316E-07   -0.4948833476054096E+00   -0.7283872879632421E-03    0.4793068240771958E-10    0.3461539515854477E-09   -0.7922950490124592E-12   -0.7809603658204267E-12    0.1462161880287638E-10
 -0.1842   0.6788    0.2630729814119183E-01    0.7455054551716468E-05   -0.2565485294216428E-05   -0.4795585512682080E+00   -0.9596389722755521E-02   -0.3580337818695374E-08    0.3406639024691738E-09   -0.1437614784161045E-11   -0.1170761404489795E-11    0.5945770958915020E-10
 -0.1869   0.6742    0.2841641197096512E-01    0.5310584391059849E-04   -0.6483513200363220E-05   -0.4541212451349385E+00   -0.5053930494471877E-01   -0.2837281566015040E-07    0.3354906543545644E-09   -0.1292390023124868E-11   -0.1125457366191185E-11    0.1334281383297276E-09
 -0.1906   0.6677    0.3127527023407500E-01    0.1631595482949023E-03   -0.9168997876620369E-05   -0.4188037567264360E+00   -0.1487485167416286E+00   -0.8805873919446352E-07    0.3320688030106211E-09   -0.7413722413751600E-12   -0.1172860419895727E-11    0.2369187034056974E-09
 -0.1954   0.6595    0.3483891764419173E-01    0.3350457443903960E-03   -0.1004394465883951E-04   -0.3741014278453514E+00   -0.3037164239480413E+00   -0.1811309572432899E-06    0.3300650759652246E-09   -0.1922767500772693E-13   -0.1142634598050307E-11    0.3710551033098142E-09
 -0.2011   0.6495    0.3897141848084014E-01    0.5410178241583607E-03   -0.9015531031782548E-05   -0.3209578295733130E+00   -0.4912324557093142E+00   -0.2922802255086739E-06    0.3293512094992845E-09    0.5591083152012288E-12   -0.1141566008389105E-11    0.5356285345814449E-09
 -0.2079   0.6378    0.4341508367427695E-01    0.7400982196220966E-03   -0.6746255278427237E-05   -0.2609595966185160E+00   -0.6741467739224132E+00   -0.3994300033560223E-06    0.3289225090213899E-09    0.7164685511540370E-12   -0.1091331885971769E-11    0.7315195810209119E-09
 -0.2156   0.6245    0.4779407060472653E-01    0.8925094846190897E-03   -0.3879962401550321E-05   -0.1964393210072680E+00   -0.8159632313212544E+00   -0.4811085308043934E-06    0.3274142103271149E-09    0.2503830476285884E-12   -0.1079979855544977E-11    0.9583356191944503E-09
 -0.2242   0.6095    0.5165718224504857E-01    0.9741361328923799E-03   -0.1284419258342470E-05   -0.1303786091806829E+00   -0.8942173729395517E+00   -0.5244284263816035E-06    0.3229925953432411E-09   -0.9526823774308468E-12   -0.1070131830371857E-11    0.1215943623567028E-08
 -0.2337   0.5930    0.5455097092866999E-01    0.9876030349884155E-03    0.3766702266661715E-06   -0.6607637152347529E-01   -0.9108642138303259E+00   -0.5308640426536123E-06    0.3133906606445080E-09   -0.2955503897172918E-11   -0.9997314391260725E-12    0.1499384366665524E-08
 -0.2441   0.5750    0.5611250737337600E-01    0.9646683900766828E-03    0.6598095838060419E-06   -0.6667847631090585E-02   -0.8945695801121570E+00   -0.5176169746829223E-06    0.2958658344362486E-09   -0.5699711536077956E-11   -0.1019657882433966E-11    0.1797971521666497E-08
 -0.2553   0.5557    0.5614785367530017E-01    0.9563106929367804E-03   -0.3533224221923313E-06    0.4534382700728076E-01   -0.8918155055125386E+00   -0.5121817448710771E-06    0.2677391290444031E-09   -0.8987679524230519E-11   -0.9695703441503500E-12    0.2090292453016396E-08
 -0.2672   0.5350    0.5466109953087814E-01    0.1014241821195539E-02   -0.2258076951098829E-05    0.8840949548915399E-01   -0.9500316873966561E+00   -0.5424073935617270E-06    0.2270107643531638E-09   -0.1247398538628541E-10   -0.9496240599426997E-12    0.2343224433931645E-08
 -0.2799   0.5131    0.5181849005357033E-01    0.1174794046441480E-02   -0.4493555162234277E-05    0.1220631280294841E+00   -0.1102807570517075E+01   -0.6278101157358427E-06    0.1731171248020580E-09   -0.1575724273283896E-10   -0.9230394226733551E-12    0.2515893604559949E-08
 -0.2932   0.4900    0.4787659304767784E-01    0.1454607491589423E-02   -0.6706642046111800E-05    0.1468706985483376E+00   -0.1365738090948844E+01   -0.7772846208939466E-06    0.1070681980575028E-09   -0.1850549574688998E-10   -0.8562976716586235E-12    0.2569432770715974E-08
 -0.3071   0.4660    0.4311932659170609E-01    0.1856922740334203E-02   -0.8744059248358201E-05    0.1642180987005487E+00   -0.1742007252822371E+01   -0.9925431033319130E-06    0.3115276092646724E-10   -0.2043699931508769E-10   -0.8106224025361541E-12    0.2480039493213404E-08
 -0.3215   0.4410    0.3782941153024977E-01    0.2379589642018183E-02   -0.1061565423552410E-04    0.1759661714461246E+00   -0.2229641143508217E+01   -0.1272419695975218E-05   -0.5161429963984610E-10   -0.2130080833939729E-10   -0.7483597075363946E-12    0.2249187315561674E-08
 -0.3364   0.4152    0.3228655955401922E-01    0.3018191803253797E-02   -0.1230617104365364E-04    0.1840477290271143E+00   -0.2824397814130869E+01   -0.1614582834285746E-05   -0.1379132051615439E-09   -0.2077907290676251E-10   -0.6718237077762979E-12    0.1904379735503947E-08
 -0.3517   0.3887    0.2677558281137666E-01    0.3764629176890607E-02   -0.1377808700629127E-04    0.1901264268669487E+00   -0.3518516994449692E+01   -0.2014721629166250E-05   -0.2244310744192735E-09   -0.1857198769772417E-10   -0.6194628143774139E-12    0.1490926119975672E-08
 -0.3674   0.3615    0.2159225549261755E-01    0.4604583769894301E-02   -0.1493500230722547E-04    0.1954177422439981E+00   -0.4298434957424794E+01   -0.2465221488824369E-05   -0.3078749477580800E-09   -0.1445818464951287E-10   -0.5689893001203927E-12    0.1055358672414491E-08
 -0.3833   0.3339    0.1704236949133828E-01    0.5516275599050983E-02   -0.1569515839250612E-04    0.2006878443898281E+00   -0.5143688830222464E+01   -0.2954432005293445E-05   -0.3847422311298310E-09   -0.8387311678514919E-11   -0.4792138907916410E-12    0.6354761582401391E-09
 -0.3995   0.3060    0.1343138065980100E-01    0.6470966950006004E-02   -0.1597480646335819E-04    0.2063638634476163E+00   -0.6027419038775807E+01   -0.3466989890407510E-05   -0.4511075471502757E-09   -0.5578593142985255E-12   -0.4140021658827209E-12    0.2552034490850563E-09
 -0.4157   0.2778    0.1104613854942853E-01    0.7434668494288185E-02   -0.1573126467665937E-04    0.2126672286919349E+00   -0.6917987643777163E+01   -0.3984662950527206E-05   -0.5027382156408411E-09    0.8602230039400638E-11   -0.3337885523535533E-12   -0.7405985460312570E-10
 -0.4321   0.2495    0.1013194095170951E-01    0.8370059823448744E-02   -0.1492265006674529E-04    0.2197148766059633E+00   -0.7780759132004698E+01   -0.4487450458667153E-05   -0.5354367539622817E-09    0.1850022912641691E-10   -0.2870620408046420E-12   -0.3489613971049965E-09
 -0.4484   0.2211    0.1086908428447189E-01    0.9237816582589143E-02   -0.1352128380422974E-04    0.2275766675633216E+00   -0.8579347935974999E+01   -0.4954216532630293E-05   -0.5456308183049430E-09    0.2845451652078168E-10   -0.2162020562579414E-12   -0.5712770291543823E-09
 -0.4647   0.1929    0.1335015925131499E-01    0.9997020626800100E-02   -0.1147137774299233E-04    0.2363007899209990E+00   -0.9275990713857407E+01   -0.5362993114029663E-05   -0.5308926215308318E-09    0.3781153168347373E-10   -0.1926028780907529E-12   -0.7440376153730610E-09
 -0.4809   0.1650    0.1755797849965055E-01    0.1060509861544310E-01   -0.8711087589986622E-05    0.2459219388858498E+00   -0.9831528740413786E+01   -0.5690851936350114E-05   -0.4903679615142487E-09    0.4600614333938324E-10   -0.1641672908725411E-12   -0.8714995339970111E-09
 -0.4968   0.1374    0.2334355250035897E-01    0.1101827571538432E-01   -0.5165671374866120E-05    0.2564618456535709E+00   -0.1020583786671983E+02   -0.5914240770449792E-05   -0.4249973342002056E-09    0.5257017043902579E-10   -0.1705580121580397E-12   -0.9576950274481355E-09
 -0.5124   0.1103    0.3040728549153497E-01    0.1119380863783361E-01   -0.8068295335727927E-06    0.2679267593008839E+00   -0.1035994344785661E+02   -0.6010071175107622E-05   -0.3375077825724937E-09    0.5716960238544289E-10   -0.1640181046536071E-12   -0.1006497539826623E-08
 -0.5278   0.0838    0.3829106346031079E-01    0.1109491157608783E-01    0.4312420323108452E-05    0.2803038891103794E+00   -0.1026054032930021E+02   -0.5958481361737680E-05   -0.2323621295374778E-09    0.5956835025244800E-10   -0.1972588759002747E-12   -0.1022419159751875E-08
 -0.5427   0.0579    0.4639366953301560E-01    0.1069840889385082E-01    0.9984672837591076E-05    0.2935578976679542E+00   -0.9887026804114054E+01   -0.5746834130175650E-05   -0.1154321152552207E-09    0.5967826233188589E-10   -0.2075561944536730E-12   -0.1009791365108592E-08
 -0.5571   0.0330    0.5402085713571383E-01    0.1000362310063636E-01    0.1583471105004262E-04    0.3076282810966436E+00   -0.9239538566199624E+01   -0.5374656667227683E-05    0.6265203633670779E-11    0.5753908460803814E-10   -0.2191996584244293E-12   -0.9720897229531511E-09
 -0.5710   0.0089    0.6047308162464402E-01    0.9039525740289161E-02    0.2132828208332481E-04    0.3224282458296275E+00   -0.8345402307638063E+01   -0.4857367258335239E-05    0.1254607043255085E-09    0.5336059372140767E-10   -0.2703393064962256E-12   -0.9151761223846755E-09
 -0.5843  -0.0141    0.6515704785940311E-01    0.7866476598408159E-02    0.2587584961927708E-04    0.3378451805002864E+00   -0.7260528770245753E+01   -0.4227408940686770E-05    0.2354621289613057E-09    0.4754663329720188E-10   -0.2537969834293108E-12   -0.8429979232033036E-09
 -0.5969  -0.0360    0.6769105418265516E-01    0.6570108805251012E-02    0.2895920217074923E-04    0.3537420067941894E+00   -0.6063756131852436E+01   -0.3530789350784286E-05    0.3311052612642307E-09    0.4066796899238057E-10   -0.2206845817198655E-12   -0.7600744929281422E-09
 -0.6089  -0.0567    0.6796834252999572E-01    0.5247856830438912E-02    0.3027661702769584E-04    0.3699578770563656E+00   -0.4844443649809699E+01   -0.2820032704860518E-05    0.4094578634483703E-09    0.3334493792195303E-10   -0.2358946371572301E-12   -0.6709544725369554E-09
 -0.6200  -0.0761    0.6615615762205670E-01    0.3992105280861028E-02    0.2980608592680571E-04    0.3863064952024874E+00   -0.3687190589909186E+01   -0.2144850064118915E-05    0.4698898978250377E-09    0.2619215955235177E-10   -0.1901534485426737E-12   -0.5801959693935155E-09
 -0.6304  -0.0941    0.6263390434764277E-01    0.2875536059659795E-02    0.2778840351060116E-04    0.4025714461367956E+00   -0.2658455206356992E+01   -0.1544490862253587E-05    0.5137868464011319E-09    0.1967392915247501E-10   -0.1773026170326375E-12   -0.4905347846667629E-09
 -0.6400  -0.1106    0.5789792762266945E-01    0.1943169497655103E-02    0.2461861602885330E-04    0.4185004715692922E+00   -0.1799444580810387E+01   -0.1043130502006008E-05    0.5436927436042183E-09    0.1407332583802656E-10   -0.1696143225871083E-12   -0.4050099439850685E-09
 -0.6486  -0.1255    0.5246775757653711E-01    0.1212218943098100E-02    0.2071490006486673E-04    0.4338035735383871E+00   -0.1125879586093652E+01   -0.6501498079378114E-06    0.5626192844943034E-09    0.9505292386524644E-11   -0.1951772077291025E-12   -0.3252337756748380E-09
 -0.6563  -0.1389    0.4681951936217869E-01    0.6777276837110574E-03    0.1641474829358863E-04    0.4481609299895916E+00   -0.6332384032439755E+00   -0.3627578146943569E-06    0.5734679189850489E-09    0.5973424229213653E-11   -0.1905559043891003E-12   -0.2524029457662280E-09
 -0.6631  -0.1506    0.4135379992986296E-01    0.3200063100904865E-03    0.1194130895037858E-04    0.4612438040635457E+00   -0.3032928424750934E+00   -0.1705280404966023E-06    0.5787942694568393E-09    0.3408395093940086E-11   -0.2101929741371578E-12   -0.1875455901689804E-09
 -0.6688  -0.1606    0.3638989117070909E-01    0.1104556534580215E-03    0.7479644670260203E-05    0.4727451872618899E+00   -0.1095649391373410E+00   -0.5792947598860003E-07    0.5806882058534413E-09    0.1720883852085464E-11   -0.2156191891700132E-12   -0.1313830953753037E-09
 -0.6736  -0.1688    0.3216953773731360E-01    0.1391803442957360E-04    0.3342411856260934E-05    0.4824103405415353E+00   -0.1917537892092790E-01   -0.6372685401538639E-08    0.5809577601975646E-09    0.7866693407798664E-12   -0.2409912547296500E-12   -0.8485560691606775E-10
 -0.6773  -0.1752    0.2885468533534840E-01   -0.1043665420984136E-04    0.1455160367955514E-06    0.4900554874118184E+00    0.5679642059741880E-02    0.6376040999164132E-08    0.5809386634399692E-09    0.4160005673270462E-12   -0.2765353050715458E-12   -0.4789975013852477E-10
 -0.6799  -0.1798    0.2651538524824141E-01   -0.5194250660903753E-05   -0.1214837402710510E-05    0.4955679689719966E+00    0.4014966689371277E-02    0.2863915031469293E-08    0.5816368814533235E-09    0.3410674520587520E-12   -0.2875169720362170E-12   -0.2154762956604883E-10
 -0.6816  -0.1826    0.2513239468233746E-01   -0.2275904993452526E-06   -0.2274837019255401E-06    0.4988905512288597E+00    0.7496522525874772E-03    0.1939690863108700E-09    0.5828926343334762E-09    0.1959720905518603E-12   -0.2002005332346624E-12   -0.5590191666775962E-11
 -0.6821  -0.1835    0.2467276588303156E-01    0.0000000000000000E+00    0.0000000000000000E+00    0.5000000000000000E+00   -0.3797795344106782E-04    0.0000000000000000E+00    0.0000000000000000E+00    0.0000000000000000E+00    0.0000000000000000E+00    0.0000000000000000E+00
 -0.1793   0.6809    0.2535300871174195E-01    0.0000000000000000E+00    0.0000000000000000E+00   -0.5000000000000000E+00   -0.4900710058430116E-02    0.0000000000000000E+00    0.0000000000000000E+00    0.0000000000000000E+00    0.0000000000000000E+00    0.0000000000000000E+00
 -0.1798   0.6799    0.2580199323559757E-01    0.2563751201868359E-05   -0.7451662455956332E-05   -0.4948809434893290E+00   -0.9595409678481579E-02   -0.3578033643382353E-08    0.3411255895813259E-09   -0.1124651966607354E-11   -0.1540774452468696E-11    0.1465202113283548E-10
 -0.1814   0.6772    0.2711569665874815E-01    0.4196889027997516E-04   -0.4197190019237705E-04   -0.4795488117196105E+00   -0.2289694044903337E-01   -0.8056843534813527E-07    0.3389087135929891E-09   -0.3241703292519021E-11   -0.3799476358534726E-11    0.5927729314347818E-10
 -0.1841   0.6726    0.2922214217934034E-01    0.2109650729755017E-03   -0.9508187502544255E-04   -0.4540984951712040E+00   -0.5536672906113517E-01   -0.4542472575252892E-06    0.3352793112587626E-09   -0.3886660958352106E-11   -0.4759245081364938E-11    0.1332587720725975E-09
 -0.1878   0.6661    0.3206126717620358E-01    0.6031202143505192E-03   -0.1365644261971653E-03   -0.4187609326166630E+00   -0.1295227689488866E+00   -0.1336035212807675E-05    0.3320140343210376E-09   -0.2656767167374952E-11   -0.5043604422994008E-11    0.2370209722935002E-09
 -0.1926   0.6579    0.3556889058008724E-01    0.1226710452789702E-02   -0.1512167310990758E-03   -0.3740305845871259E+00   -0.2537091228162132E+00   -0.2728288812649783E-05    0.3298397110995666E-09   -0.5589903540048624E-12   -0.4974992640072173E-11    0.3708572997307424E-09
 -0.1983   0.6479    0.3960803629251018E-01    0.1991600366335721E-02   -0.1383443893745656E-03   -0.3208521565011793E+00   -0.4133537771928065E+00   -0.4418534312941290E-05    0.3286334121499479E-09    0.1188570075694173E-11   -0.4723346713753074E-11    0.5356347379525950E-09
 -0.2051   0.6362    0.4392857261117589E-01    0.2749651315503393E-02   -0.1052618845044630E-03   -0.2608162409462084E+00   -0.5784187841781586E+00   -0.6075117543665290E-05    0.3276180576827770E-09    0.1422528761452213E-11   -0.4385807689244459E-11    0.7312400962522503E-09
 -0.2128   0.6229    0.4816813751530854E-01    0.3350750415053960E-02   -0.6278792663274861E-04   -0.1962616524475156E+00   -0.7164432915913588E+00   -0.7368421417476729E-05    0.3254527064511237E-09   -0.6492029136495603E-12   -0.4028707922820729E-11    0.9582185184209280E-09