 title="result"
 variables="x","y","P","u","v","t","omega","psi","RES1","RES2","RES3","RES4"
zone,j= 49,i= 49,f=point
 -0.5000   0.5000    0.2250692286117794E-01    0.0000000000000000E+00    0.0000000000000000E+00   -0.5000000000000000E+00    0.0000000000000000E+00    0.0000000000000000E+00    0.0000000000000000E+00    0.0000000000000000E+00    0.0000000000000000E+00    0.0000000000000000E+00
 -0.5000   0.4989    0.2303743322137915E-01    0.0000000000000000E+00    0.0000000000000000E+00   -0.4963814788369975E+00   -0.3790185581261547E-03    0.0000000000000000E+00    0.0000000000000000E+00    0.0000000000000000E+00    0.0000000000000000E+00    0.0000000000000000E+00
 -0.5000   0.4957    0.2462503844245467E-01    0.0000000000000000E+00    0.0000000000000000E+00   -0.4855427481094486E+00   -0.4651547894814927E-02    0.0000000000000000E+00    0.0000000000000000E+00    0.0000000000000000E+00    0.0000000000000000E+00    0.0000000000000000E+00
 -0.5000   0.4904    0.2723848912645035E-01    0.0000000000000000E+00    0.0000000000000000E+00   -0.4675419912636725E+00   -0.1011120352260459E-02    0.0000000000000000E+00    0.0000000000000000E+00    0.0000000000000000E+00    0.0000000000000000E+00    0.0000000000000000E+00
 -0.5000   0.4830    0.3074304563463213E-01    0.0000000000000000E+00    0.0000000000000000E+00   -0.4424989633507548E+00    0.3560035234005621E-01    0.0000000000000000E+00    0.0000000000000000E+00    0.0000000000000000E+00    0.0000000000000000E+00    0.0000000000000000E+00
 -0.5000   0.4735    0.3487646375013984E-01    0.0000000000000000E+00    0.0000000000000000E+00   -0.4106176741033725E+00    0.1214035995737265E+00    0.0000000000000000E+00    0.0000000000000000E+00    0.0000000000000000E+00    0.0000000000000000E+00    0.0000000000000000E+00
 -0.5000   0.4619    0.3929876524266702E-01    0.0000000000000000E+00    0.0000000000000000E+00   -0.3722001500021232E+00    0.2545139276892986E+00    0.0000000000000000E+00    0.0000000000000000E+00    0.0000000000000000E+00    0.0000000000000000E+00    0.0000000000000000E+00
 -0.5000   0.4484    0.4363771088476082E-01    0.0000000000000000E+00    0.0000000000000000E+00   -0.3276545369028831E+00    0.4148431943291079E+00    0.0000000000000000E+00    0.0000000000000000E+00    0.0000000000000000E+00    0.0000000000000000E+00    0.0000000000000000E+00
 -0.5000   0.4330    0.4753384432346100E-01    0.0000000000000000E+00    0.0000000000000000E+00   -0.2775234409723347E+00    0.5684816726260671E+00    0.0000000000000000E+00    0.0000000000000000E+00    0.0000000000000000E+00    0.0000000000000000E+00    0.0000000000000000E+00
 -0.5000   0.4157    0.5067456388491164E-01    0.0000000000000000E+00    0.0000000000000000E+00   -0.2225699497629680E+00    0.6755809811290989E+00    0.0000000000000000E+00    0.0000000000000000E+00    0.0000000000000000E+00    0.0000000000000000E+00    0.0000000000000000E+00
 -0.5000   0.3967    0.5281555143274046E-01    0.0000000000000000E+00    0.0000000000000000E+00   -0.1639429675421527E+00    0.7000646692874637E+00    0.0000000000000000E+00    0.0000000000000000E+00    0.0000000000000000E+00    0.0000000000000000E+00    0.0000000000000000E+00
 -0.5000   0.3759    0.5378370917166419E-01    0.0000000000000000E+00    0.0000000000000000E+00   -0.1033914426244423E+00    0.6184724831267668E+00    0.0000000000000000E+00    0.0000000000000000E+00    0.0000000000000000E+00    0.0000000000000000E+00    0.0000000000000000E+00
 -0.5000   0.3536    0.5347045894524084E-01    0.0000000000000000E+00    0.0000000000000000E+00   -0.4341239664410932E-01    0.4238496945187845E+00    0.0000000000000000E+00    0.0000000000000000E+00    0.0000000000000000E+00    0.0000000000000000E+00    0.0000000000000000E+00
 -0.5000   0.3297    0.5182950210651496E-01    0.0000000000000000E+00    0.0000000000000000E+00    0.1285868216498032E-01    0.1225785537622538E+00    0.0000000000000000E+00    0.0000000000000000E+00    0.0000000000000000E+00    0.0000000000000000E+00    0.0000000000000000E+00
 -0.5000   0.3044    0.4889071572524428E-01    0.0000000000000000E+00    0.0000000000000000E+00    0.6217518441920537E-01   -0.2739281313486462E+00    0.0000000000000000E+00    0.0000000000000000E+00    0.0000000000000000E+00    0.0000000000000000E+00    0.0000000000000000E+00
 -0.5000   0.2778    0.4478042366341266E-01    0.0000000000000000E+00    0.0000000000000000E+00    0.1020559079385019E+00   -0.7572237006830999E+00    0.0000000000000000E+00    0.0000000000000000E+00    0.0000000000000000E+00    0.0000000000000000E+00    0.0000000000000000E+00
 -0.5000   0.2500    0.3972677265310210E-01    0.0000000000000000E+00    0.0000000000000000E+00    0.1316093350392196E+00   -0.1325145165591264E+01    0.0000000000000000E+00    0.0000000000000000E+00    0.0000000000000000E+00    0.0000000000000000E+00    0.0000000000000000E+00
 -0.5000   0.2211    0.3403876628265581E-01    0.0000000000000000E+00    0.0000000000000000E+00    0.1517869872318076E+00   -0.1979938433971258E+01    0.0000000000000000E+00    0.0000000000000000E+00    0.0000000000000000E+00    0.0000000000000000E+00    0.0000000000000000E+00
 -0.5000   0.1913    0.2807267918052570E-01    0.0000000000000000E+00    0.0000000000000000E+00    0.1648714950082874E+00   -0.2723374061158427E+01    0.0000000000000000E+00    0.0000000000000000E+00    0.0000000000000000E+00    0.0000000000000000E+00    0.0000000000000000E+00
 -0.5000   0.1607    0.2220528269477087E-01    0.0000000000000000E+00    0.0000000000000000E+00    0.1735351594531450E+00   -0.3550984991743283E+01    0.0000000000000000E+00    0.0000000000000000E+00    0.0000000000000000E+00    0.0000000000000000E+00    0.0000000000000000E+00
 -0.5000   0.1294    0.1681887932359800E-01    0.0000000000000000E+00    0.0000000000000000E+00    0.1800374245145371E+00   -0.4447378446979154E+01    0.0000000000000000E+00    0.0000000000000000E+00    0.0000000000000000E+00    0.0000000000000000E+00    0.0000000000000000E+00
 -0.5000   0.0975    0.1228733852749682E-01    0.0000000000000000E+00    0.0000000000000000E+00    0.1858917880432986E+00   -0.5384344462089619E+01    0.0000000000000000E+00    0.0000000000000000E+00    0.0000000000000000E+00    0.0000000000000000E+00    0.0000000000000000E+00
 -0.5000   0.0653    0.8953092060829650E-02    0.0000000000000000E+00    0.0000000000000000E+00    0.1919417279922730E+00   -0.6322359011050314E+01    0.0000000000000000E+00    0.0000000000000000E+00    0.0000000000000000E+00    0.0000000000000000E+00    0.0000000000000000E+00
 -0.5000   0.0327    0.7093671718848070E-02    0.0000000000000000E+00    0.0000000000000000E+00    0.1985990661374941E+00   -0.7214409610900339E+01    0.0000000000000000E+00    0.0000000000000000E+00    0.0000000000000000E+00    0.0000000000000000E+00    0.0000000000000000E+00
 -0.5000   0.0000    0.6884481218760218E-02    0.0000000000000000E+00    0.0000000000000000E+00    0.2060552653631298E+00   -0.8010485997531115E+01    0.0000000000000000E+00    0.0000000000000000E+00    0.0000000000000000E+00    0.0000000000000000E+00    0.0000000000000000E+00
 -0.5000  -0.0327    0.8365604205532987E-02    0.0000000000000000E+00    0.0000000000000000E+00    0.2144060041051049E+00   -0.8661539517875118E+01    0.0000000000000000E+00    0.0000000000000000E+00    0.0000000000000000E+00    0.0000000000000000E+00    0.0000000000000000E+00
 -0.5000  -0.0653    0.1141874394476036E-01    0.0000000000000000E+00    0.0000000000000000E+00    0.2237065674104572E+00   -0.9122739871846290E+01    0.0000000000000000E+00    0.0000000000000000E+00    0.0000000000000000E+00    0.0000000000000000E+00    0.0000000000000000E+00
 -0.5000  -0.0975    0.1575800882309462E-01    0.0000000000000000E+00    0.0000000000000000E+00    0.2339904629449215E+00   -0.9356552677557440E+01    0.0000000000000000E+00    0.0000000000000000E+00    0.0000000000000000E+00    0.0000000000000000E+00    0.0000000000000000E+00
 -0.5000  -0.1294    0.2093857263065622E-01    0.0000000000000000E+00    0.0000000000000000E+00    0.2452728783401056E+00   -0.9336354991646489E+01    0.0000000000000000E+00    0.0000000000000000E+00    0.0000000000000000E+00    0.0000000000000000E+00    0.0000000000000000E+00
 -0.5000  -0.1607    0.2638763723871573E-01    0.0000000000000000E+00    0.0000000000000000E+00    0.2575491368622922E+00   -0.9050768481679080E+01    0.0000000000000000E+00    0.0000000000000000E+00    0.0000000000000000E+00    0.0000000000000000E+00    0.0000000000000000E+00
 -0.5000  -0.1913    0.3146099995207281E-01    0.0000000000000000E+00    0.0000000000000000E+00    0.2707922192329303E+00   -0.8508029734229407E+01    0.0000000000000000E+00    0.0000000000000000E+00    0.0000000000000000E+00    0.0000000000000000E+00    0.0000000000000000E+00
 -0.5000  -0.2211    0.3552257789658760E-01    0.0000000000000000E+00    0.0000000000000000E+00    0.2849509811226441E+00   -0.7738797021342216E+01    0.0000000000000000E+00    0.0000000000000000E+00    0.0000000000000000E+00    0.0000000000000000E+00    0.0000000000000000E+00
 -0.5000  -0.2500    0.3803505954577042E-01    0.0000000000000000E+00    0.0000000000000000E+00    0.2999496578772727E+00   -0.6795533162561887E+01    0.0000000000000000E+00    0.0000000000000000E+00    0.0000000000000000E+00    0.0000000000000000E+00    0.0000000000000000E+00
 -0.5000  -0.2778    0.3864088437358614E-01    0.0000000000000000E+00    0.0000000000000000E+00    0.3156884747864456E+00   -0.5747251003690633E+01    0.0000000000000000E+00    0.0000000000000000E+00    0.0000000000000000E+00    0.0000000000000000E+00    0.0000000000000000E+00
 -0.5000  -0.3044    0.3721088615751592E-01    0.0000000000000000E+00    0.0000000000000000E+00    0.3320444127517118E+00   -0.4670070386384987E+01    0.0000000000000000E+00    0.0000000000000000E+00    0.0000000000000000E+00    0.0000000000000000E+00    0.0000000000000000E+00
 -0.5000  -0.3297    0.3384622754524497E-01    0.0000000000000000E+00    0.0000000000000000E+00    0.3488706578591466E+00   -0.3635831464416604E+01    0.0000000000000000E+00    0.0000000000000000E+00    0.0000000000000000E+00    0.0000000000000000E+00    0.0000000000000000E+00
 -0.5000  -0.3536    0.2883544055330579E-01    0.0000000000000000E+00    0.0000000000000000E+00    0.3659934747818170E+00   -0.2702051307362904E+01    0.0000000000000000E+00    0.0000000000000000E+00    0.0000000000000000E+00    0.0000000000000000E+00    0.0000000000000000E+00
 -0.5000  -0.3759    0.2258378400287848E-01    0.0000000000000000E+00    0.0000000000000000E+00    0.3832065612305698E+00   -0.1905971283902568E+01    0.0000000000000000E+00    0.0000000000000000E+00    0.0000000000000000E+00    0.0000000000000000E+00    0.0000000000000000E+00
 -0.5000  -0.3967    0.1553871848401451E-01    0.0000000000000000E+00    0.0000000000000000E+00    0.4002651763467991E+00   -0.1263760449300948E+01    0.0000000000000000E+00    0.0000000000000000E+00    0.0000000000000000E+00    0.0000000000000000E+00    0.0000000000000000E+00
 -0.5000  -0.4157    0.8131035868908678E-02    0.0000000000000000E+00    0.0000000000000000E+00    0.4168844275348704E+00   -0.7739562233940828E+00    0.0000000000000000E+00    0.0000000000000000E+00    0.0000000000000000E+00    0.0000000000000000E+00    0.0000000000000000E+00
 -0.5000  -0.4330    0.7402236369414604E-03    0.0000000000000000E+00    0.0000000000000000E+00    0.4327464331628856E+00   -0.4230567753721580E+00    0.0000000000000000E+00    0.0000000000000000E+00    0.0000000000000000E+00    0.0000000000000000E+00    0.0000000000000000E+00
 -0.5000  -0.4484   -0.6317658201453725E-02    0.0000000000000000E+00    0.0000000000000000E+00    0.4475185586763910E+00   -0.1910258274581669E+00    0.0000000000000000E+00    0.0000000000000000E+00    0.0000000000000000E+00    0.0000000000000000E+00    0.0000000000000000E+00
 -0.5000  -0.4619   -0.1278803605853953E-01    0.0000000000000000E+00    0.0000000000000000E+00    0.4608801615157025E+00   -0.5515671087217854E-01    0.0000000000000000E+00    0.0000000000000000E+00    0.0000000000000000E+00    0.0000000000000000E+00    0.0000000000000000E+00
 -0.5000  -0.4735   -0.1847100781272607E-01    0.0000000000000000E+00    0.0000000000000000E+00    0.4725506731647991E+00    0.8175068085071877E-02    0.0000000000000000E+00    0.0000000000000000E+00    0.0000000000000000E+00    0.0000000000000000E+00    0.0000000000000000E+00
 -0.5000  -0.4830   -0.2321802113956993E-01    0.0000000000000000E+00    0.0000000000000000E+00    0.4823101991761110E+00    0.2329486610854290E-01    0.0000000000000000E+00    0.0000000000000000E+00    0.0000000000000000E+00    0.0000000000000000E+00    0.0000000000000000E+00
 -0.5000  -0.4904   -0.2693367775629820E-01    0.0000000000000000E+00    0.0000000000000000E+00    0.4900064365752450E+00    0.1452969965651770E-01    0.0000000000000000E+00    0.0000000000000000E+00    0.0000000000000000E+00    0.0000000000000000E+00    0.0000000000000000E+00
 -0.5000  -0.4957   -0.2957999546076773E-01    0.0000000000000000E+00    0.0000000000000000E+00    0.4955474355933004E+00    0.3248559333203214E-02    0.0000000000000000E+00    0.0000000000000000E+00    0.0000000000000000E+00    0.0000000000000000E+00    0.0000000000000000E+00
 -0.5000  -0.4989   -0.3116781246167242E-01    0.0000000000000000E+00    0.0000000000000000E+00    0.4988854895501529E+00   -0.1586963118980514E-03    0.0000000000000000E+00    0.0000000000000000E+00    0.0000000000000000E+00    0.0000000000000000E+00    0.0000000000000000E+00
 -0.5000  -0.5000   -0.3170083820920277E-01    0.0000000000000000E+00    0.0000000000000000E+00    0.5000000000000000E+00    0.0000000000000000E+00    0.0000000000000000E+00    0.0000000000000000E+00    0.0000000000000000E+00    0.0000000000000000E+00    0.0000000000000000E+00
 -0.4989   0.5000    0.2250974362874682E-01    0.0000000000000000E+00    0.0000000000000000E+00   -0.5000000000000000E+00   -0.3789847331133214E-03    0.0000000000000000E+00    0.0000000000000000E+00    0.0000000000000000E+00    0.0000000000000000E+00    0.0000000000000000E+00
 -0.4989   0.4989    0.2304025454071920E-01    0.3624718385696543E-06   -0.3624837710896596E-06   -0.4963814115713393E+00   -0.5565668506676819E-03   -0.2580629511737646E-09   -0.5507343106949183E-09   -0.3013176730695677E-12   -0.3001132328761535E-12    0.6281477616700004E-11
 -0.4989   0.4957    0.2462595239436846E-01    0.3280214898944712E-05   -0.4432919606471799E-06   -0.4855424820720393E+00   -0.1414609954785376E-02   -0.2003791645967933E-08   -0.5527998069064857E-09   -0.5875083405881831E-12   -0.4389519092851861E-12    0.2526108207161204E-10
 -0.4989   0.4904    0.2723102439374639E-01   -0.2304577877542394E-05    0.1502799647785457E-05   -0.4675414177927316E+00    0.5477506527022174E-02    0.6165741210687195E-09   -0.5549634926951819E-09   -0.6509810052124365E-12   -0.4016093013703426E-12    0.5661833371931047E-10
 -0.4989   0.4830    0.3072337860253943E-01   -0.4103549441445900E-04    0.3969989867661167E-05   -0.4424980304263573E+00    0.4114559739237011E-01    0.2148492051701544E-07   -0.5572537101899977E-09   -0.6012933206900328E-12   -0.4351380367140223E-12    0.1010780383003951E-09
 -0.4989   0.4735    0.3484722352888955E-01   -0.1302649004507738E-03    0.5955903730015941E-05   -0.4106163904286498E+00    0.1220165675806838E+00    0.6966325930950352E-07   -0.5601634104485109E-09   -0.3413861532873541E-12   -0.4318698176852820E-12    0.1596809334064586E-09
 -0.4989   0.4619    0.3926526985928176E-01   -0.2687028608732116E-03    0.6794990229053927E-05   -0.3721985400698995E+00    0.2474809684757663E+00    0.1445160984121414E-06   -0.5637273217673489E-09    0.2002564780667626E-12   -0.4330251435202825E-12    0.2337270880309328E-09
 -0.4989   0.4484    0.4360641087655796E-01   -0.4357090284398171E-03    0.6360280375305368E-05   -0.3276525661521257E+00    0.3991362753028059E+00    0.2347031470798738E-06   -0.5680141530739480E-09    0.1078803713028265E-11   -0.4518885265980543E-12    0.3259288759022150E-09
 -0.4989   0.4330    0.4751062742632767E-01   -0.5958339312155239E-03    0.4709238398164979E-05   -0.2775209458347980E+00    0.5446187460942431E+00    0.3212078617784431E-06   -0.5730494100075756E-09    0.2324355985461324E-11   -0.4832072242333396E-12    0.4387524822624389E-09
 -0.4989   0.4157    0.5066384739043008E-01   -0.7071061380912572E-03    0.2186437639298753E-05   -0.2225666085915596E+00    0.6453987807313099E+00    0.3813521575232364E-06   -0.5789959310609216E-09    0.3957639771456911E-11   -0.4786830654079921E-12    0.5723883277075625E-09
 -0.4989   0.3967    0.5281943682574987E-01   -0.7313039575352616E-03   -0.7732035540930474E-06   -0.1639383453088567E+00    0.6661185130453954E+00    0.3946793992082207E-06   -0.5860890306061406E-09    0.5975941963498599E-11   -0.5002109837448643E-12    0.7219289957505204E-09
 -0.4989   0.3759    0.5380197129130596E-01   -0.6433221381976343E-03   -0.3671108778748557E-05   -0.1033851365478614E+00    0.5833535503301737E+00    0.3476871346387392E-06   -0.5946275095577991E-09    0.8344630542111986E-11   -0.4891607952028920E-12    0.8708042273375405E-09
 -0.4989   0.3536    0.5350110612190941E-01   -0.4353933671298596E-03   -0.6173644121287125E-05   -0.4340427580431813E-01    0.3895269108830063E+00    0.2363271580606526E-06   -0.6045891235567646E-09    0.1098066082505511E-10   -0.4472464065763404E-12    0.9860263161520777E-09
 -0.4989   0.3297    0.5186998372210855E-01   -0.1138930123079031E-03   -0.8150474317625004E-05    0.1286823578803823E-01    0.9017674603792659E-01    0.6404759796441272E-07   -0.6151200625248432E-09    0.1378429315135321E-10   -0.4494807304133985E-12    0.1018166329025405E-08
 -0.4989   0.3044    0.4893893710362725E-01    0.3093044860079551E-03   -0.9711480556822253E-05    0.6218521534344753E-01   -0.3039386964756249E+00   -0.1626954395804539E-06   -0.6238575281369840E-09    0.1664218762797987E-10   -0.4036285194963796E-12    0.9131189138145146E-09
 -0.4989   0.2778    0.4483528389639786E-01    0.8252519058762148E-03   -0.1104489572048191E-04    0.1020651491742661E+00   -0.7845412208640486E+00   -0.4391298331799249E-06   -0.6267684045380140E-09    0.1943613325838811E-10   -0.3467989784233794E-12    0.6348975720160688E-09
 -0.4989   0.2500    0.3978797745683171E-01    0.1431484522273209E-02   -0.1232620315911876E-04    0.1316167065452119E+00   -0.1349195555640162E+01   -0.7639328562198228E-06   -0.6188986233224281E-09    0.2201989285355310E-10   -0.2224470607714579E-12    0.1878772068475421E-09
 -0.4989   0.2211    0.3410636626545514E-01    0.2130088307486927E-02   -0.1361501646637207E-04    0.1517920137468947E+00   -0.1999544736837351E+01   -0.1138303721605396E-05   -0.5957636987907744E-09    0.2422732153783969E-10   -0.1530858773080013E-12   -0.3768241621515678E-09
 -0.4989   0.1913    0.2814646980481950E-01    0.2922538820578818E-02   -0.1486944065331799E-04    0.1648743671692634E+00   -0.2736579046198286E+01   -0.1563083983936879E-05   -0.5545609076118563E-09    0.2589749942272235E-10   -0.3506916979034713E-13   -0.9810022828793397E-09
 -0.4989   0.1607    0.2228435824640250E-01    0.3803617282193465E-02   -0.1593989012896436E-04    0.1735364601817549E+00   -0.3555010355533224E+01   -0.2035578111523050E-05   -0.4946784856740827E-09    0.2680026513213196E-10    0.8895661984809067E-13   -0.1548499297537864E-08
 -0.4989   0.1294    0.1690135154237479E-01    0.4756502877819795E-02   -0.1663513397732709E-04    0.1800377774929296E+00   -0.4438810197985201E+01   -0.2546825800935350E-05   -0.4175298926045734E-09    0.2664860693224469E-10    0.1930816617701225E-12   -0.2028222088326301E-08
 -0.4989   0.0975    0.1237039299141216E-01    0.5750859366384720E-02   -0.1676094123569359E-04    0.1858916485589891E+00   -0.5359511252366493E+01   -0.3080628817046946E-05   -0.3262831081707329E-09    0.2508784846533274E-10    0.3051170427426086E-12   -0.2400830321873382E-08
 -0.4989   0.0653    0.9033218101219818E-02    0.6744504839463856E-02   -0.1618183809444401E-04    0.1919413507639249E+00   -0.6277835843012611E+01   -0.3614372019860490E-05   -0.2255626831149105E-09    0.2184866176868638E-10    0.3703148898637210E-12   -0.2668438940731793E-08
 -0.4989   0.0327    0.7167013429932086E-02    0.7687513324117664E-02   -0.1482169688175858E-04    0.1985985648172610E+00   -0.7147522733924192E+01   -0.4121271267476189E-05   -0.1211074018847569E-09    0.1686797923561301E-10    0.4698047506579428E-12   -0.2844563313196546E-08
 -0.4989   0.0000    0.6947102447056997E-02    0.8526984778419937E-02   -0.1266829251254056E-04    0.2060546803076235E+00   -0.7919755274728595E+01   -0.4572887416154794E-05   -0.1921503581248096E-10    0.1030112106725767E-10    0.4516664819931293E-12   -0.2945579814783716E-08
 -0.4989  -0.0327    0.8413712917191569E-02    0.9211232212480233E-02   -0.9745323912713945E-05    0.2144053456216134E+00   -0.8547019038629017E+01   -0.4941415377134245E-05    0.7389263506629717E-10    0.2571665103090481E-11    0.4379829832146243E-12   -0.2985767155218311E-08
 -0.4989  -0.0653    0.1144883577958966E-01    0.9693209294929025E-02   -0.6114189745277664E-05    0.2237058362303728E+00   -0.8986252047919850E+01   -0.5201497726061249E-05    0.1528569423814297E-09   -0.5764222432702582E-11    0.3256804548268377E-12   -0.2976866221408858E-08
 -0.4989  -0.0975    0.1576708232202432E-01    0.9933740442054584E-02   -0.1871987988933089E-05    0.2339896582098802E+00   -0.9201800611095427E+01   -0.5331990001167146E-05    0.2138213469130013E-09   -0.1404182325970282E-10    0.2117056530082095E-12   -0.2927849063021071E-08
 -0.4989  -0.1294    0.2092440368184675E-01    0.9905299391101980E-02    0.2821350823142315E-05    0.2452720003153253E+00   -0.9168862308671610E+01   -0.5317981723272523E-05    0.2548749293215802E-09   -0.2159628031961347E-10    0.4345655779669499E-13   -0.2845551362248844E-08
 -0.4989  -0.1607    0.2634919107645396E-01    0.9596520512592013E-02    0.7728810504991428E-05    0.2575481875642444E+00   -0.8877583845586607E+01   -0.5153244959279962E-05    0.2764455817039213E-09   -0.2777522656316478E-10   -0.1671579541451251E-12   -0.2735473996623439E-08
 -0.4989  -0.1913    0.3139883265941038E-01    0.9016716183268467E-02    0.1252577532662143E-04    0.2707912020049220E+00   -0.8337124920632787E+01   -0.4842677160132578E-05    0.2812650320982435E-09   -0.3203615150937367E-10   -0.3525027492123911E-12   -0.2601839018540053E-08
 -0.4989  -0.2211    0.3543915280759423E-01    0.8198730730272030E-02    0.1682838559614348E-04    0.2849498994783249E+00   -0.7578190515265131E+01   -0.4403851966265037E-05    0.2740088503316862E-09   -0.3400452142088284E-10   -0.6064870827771074E-12   -0.2448464207424617E-08
 -0.4989  -0.2500    0.3793473892885688E-01    0.7198197385719707E-02    0.2024929773548382E-04    0.2999485139490350E+00   -0.6652249515472394E+01   -0.3866647876438650E-05    0.2605117788156974E-09   -0.3358452405066714E-10   -0.7969042092881296E-12   -0.2278007803224735E-08
 -0.4989  -0.2778    0.3852956503373095E-01    0.6087962127778595E-02    0.2247877685134721E-04    0.3156872680157080E+00   -0.5626384579966175E+01   -0.3270234019152331E-05    0.2466370302434129E-09   -0.3097211376257292E-10   -0.9325179517460924E-12   -0.2094301669586240E-08
 -0.4989  -0.3044    0.3709523531357695E-01    0.4948163132977748E-02    0.2335849650210283E-04    0.3320431397678110E+00   -0.4574185192719743E+01   -0.2657757005656294E-05    0.2372451957111110E-09   -0.2662986497981024E-10   -0.1084465850453853E-11   -0.1900084471706531E-08
 -0.4989  -0.3297    0.3373277813218964E-01    0.3854321740136494E-02    0.2291627024888357E-04    0.3488693145124219E+00   -0.3564906066002056E+01   -0.2069874380867513E-05    0.2350952141294549E-09   -0.2126154807768899E-10   -0.1169453422988909E-11   -0.1698829271701285E-08
 -0.4989  -0.3536    0.2872972919157713E-01    0.2866860880725199E-02    0.2135310748802695E-04    0.3659920607865920E+00   -0.2653904439428592E+01   -0.1539151183239767E-05    0.2407247942648461E-09   -0.1559800899553210E-10   -0.1229058521623472E-11   -0.1494254267195294E-08
 -0.4989  -0.3759    0.2248984143304956E-01    0.2024904386509100E-02    0.1897412168173299E-04    0.3832050867443472E+00   -0.1877039024909711E+01   -0.1086639708683624E-05    0.2527923634310092E-09   -0.1030375784694115E-10   -0.1237718261215548E-11   -0.1290540601467383E-08
 -0.4989  -0.3967    0.1545892115916150E-01    0.1345453630839820E-02    0.1611515979323543E-04    0.4002636683844152E+00   -0.1249891604721799E+01   -0.7215228979687298E-06    0.2688955620666622E-09   -0.5836865712982586E-11   -0.1240063607355069E-11   -0.1091166039468572E-08
 -0.4989  -0.4157    0.8066355476699962E-02    0.8269832277857393E-03    0.1305895994406494E-04    0.4168829331170362E+00   -0.7710895983442464E+00   -0.4429424425975276E-06    0.2863441879441542E-09   -0.2429554821214985E-11   -0.1210712086141541E-11   -0.9006771127528790E-09
 -0.4989  -0.4330    0.6906190709309816E-03    0.4552802358675475E-03    0.1001322295387707E-04    0.4327450163900125E+00   -0.4275652311812909E+00   -0.2432914132619859E-06    0.3029451585423448E-09   -0.1016565304157169E-12   -0.1192518306325496E-11   -0.7221385312644601E-09
 -0.4989  -0.4484   -0.6352803705024934E-02    0.2091878175854948E-03    0.7088473292985923E-05    0.4475172908049032E+00   -0.1998531535047320E+00   -0.1111378702302604E-06    0.3172010813734527E-09    0.1274640115678238E-11   -0.1156019724390944E-11   -0.5595425581206293E-09
 -0.4989  -0.4619   -0.1280972666300835E-01    0.6464280777542955E-04    0.4369332831456647E-05    0.4608791059745399E+00   -0.6567439413967253E-01   -0.3362867359384042E-07    0.3285099362676513E-09    0.1912709574058979E-11   -0.1125016746428287E-11   -0.4145871389249489E-09
 -0.4989  -0.4735   -0.1848074815214127E-01   -0.3486119341335184E-05    0.1939583721030523E-05    0.4725498700062796E+00   -0.1742773796629511E-02    0.2809265272068162E-08    0.3368354171973120E-09    0.2055237924292186E-11   -0.1103702199078960E-11   -0.2898452510988192E-09
 -0.4989  -0.4830   -0.2321831215857928E-01   -0.2106245954032515E-04    0.3506619092510724E-07    0.4823096545182561E+00    0.1600793084617126E-01    0.1192952548748081E-07    0.3428762934383836E-09    0.1933796872632954E-11   -0.1116191666004906E-11   -0.1865493089864279E-09
 -0.4989  -0.4904   -0.2692881513935954E-01   -0.1379956237832231E-04   -0.1054416779433743E-05    0.4900061213444031E+00    0.1118120460054147E-01    0.7738932372657504E-08    0.3474507936137433E-09    0.1726218126774093E-11   -0.1061853296263626E-11   -0.1051546115807267E-09
 -0.4989  -0.4957   -0.2957610528936242E-01   -0.3516097594053669E-05   -0.9924155572337616E-06    0.4955472942578218E+00    0.3437053594543747E-02    0.1834242867225381E-08    0.3523612410964022E-09    0.1496090469392530E-11   -0.1132038039697303E-11   -0.4675333004858923E-10
 -0.4989  -0.4989   -0.3116616974941509E-01   -0.6863758940389956E-07   -0.6894019942437412E-07    0.4988854541728215E+00    0.4487437739473164E-03    0.6187573950572354E-10    0.3575501042701705E-09    0.7698888184956565E-12   -0.7690304556356997E-12   -0.1117359050878571E-10
 -0.4989  -0.5000   -0.3169919629625913E-01    0.0000000000000000E+00    0.0000000000000000E+00    0.5000000000000000E+00   -0.1581206976854139E-03    0.0000000000000000E+00    0.0000000000000000E+00    0.0000000000000000E+00    0.0000000000000000E+00    0.0000000000000000E+00
 -0.4957   0.5000    0.2249667117672210E-01    0.0000000000000000E+00    0.0000000000000000E+00   -0.5000000000000000E+00   -0.4651767955238882E-02    0.0000000000000000E+00    0.0000000000000000E+00    0.0000000000000000E+00    0.0000000000000000E+00    0.0000000000000000E+00
 -0.4957   0.4989    0.2302908659084794E-01    0.4433901590618832E-06   -0.3280599128565144E-05   -0.4963804035814940E+00   -0.1415137433255077E-02   -0.2003992367404631E-08   -0.5527187352553573E-09   -0.4311340780910333E-12   -0.5500118589740755E-12    0.6323804381622861E-11
 -0.4957   0.4957    0.2461477868600837E-01   -0.8804064193466471E-06    0.8823231914126490E-06   -0.4855384918641077E+00    0.6798470225156174E-02   -0.1007378279917188E-07   -0.5535043265739170E-09   -0.1371125869092937E-11   -0.1306868675776673E-11    0.2530009426786328E-10
 -0.4957   0.4904    0.2720514118354620E-01   -0.3878946484649993E-04    0.2577338996818383E-04   -0.4675327519427558E+00    0.2132553658708856E-01    0.5706291702051632E-07   -0.5550655907127222E-09   -0.1970396935890850E-11   -0.1628091758631989E-11    0.5675655084802500E-10
 -0.4957   0.4830    0.3067030700365654E-01   -0.1902602222139504E-03    0.6074837173550256E-04   -0.4424836737507363E+00    0.5488850052323038E-01    0.3838784702908919E-06   -0.5571695500805607E-09   -0.1917104495985367E-11   -0.1824217860102451E-11    0.1014146102165658E-09
 -0.4957   0.4735    0.3476973615139963E-01   -0.5195734405172309E-03    0.8971947632068117E-04   -0.4105961003739730E+00    0.1222931748865726E+00    0.1113120584273823E-05   -0.5598908073278785E-09   -0.1012192066274231E-11   -0.2010148991704597E-11    0.1597856725404911E-09
 -0.4957   0.4619    0.3917610315336383E-01   -0.1028037419245820E-02    0.1027213414909609E-03   -0.3721723213268341E+00    0.2262457664735242E+00    0.2242297944710045E-05   -0.5633211327960019E-09    0.9958318891722939E-12   -0.2190584519334848E-11    0.2340867690658888E-09
 -0.4957   0.4484    0.4352262592426332E-01   -0.1642913916028393E-02    0.9620112655742617E-04   -0.3276197100291637E+00    0.3529253847981988E+00    0.3606494584986380E-05   -0.5674750253037431E-09    0.4299907652161039E-11   -0.2343857746778255E-11    0.3262181740015802E-09
 -0.4957   0.4330    0.4744871207215911E-01   -0.2232555196460236E-02    0.7118321568106758E-04   -0.2774791062254748E+00    0.4746696249304669E+00    0.4914920567751657E-05   -0.5723978027671883E-09    0.9028167102798079E-11   -0.2478049015985917E-11    0.4389460461773353E-09