 title="result"
 variables="x","y","P","u","v","t","omega","psi","RES1","RES2","RES3","RES4"
zone,j= 49,i= 49,f=point
 -0.3851   0.5930    0.2512157569435953E-01    0.0000000000000000E+00    0.0000000000000000E+00   -0.5000000000000000E+00    0.0000000000000000E+00    0.0000000000000000E+00    0.0000000000000000E+00    0.0000000000000000E+00    0.0000000000000000E+00    0.0000000000000000E+00
 -0.3853   0.5920    0.2564139001577207E-01    0.0000000000000000E+00    0.0000000000000000E+00   -0.4957146273651202E+00   -0.6209297886748418E-04    0.0000000000000000E+00    0.0000000000000000E+00    0.0000000000000000E+00    0.0000000000000000E+00    0.0000000000000000E+00
 -0.3860   0.5888    0.2717470130066860E-01    0.0000000000000000E+00    0.0000000000000000E+00   -0.4828788854645851E+00   -0.4211769691373312E-02    0.0000000000000000E+00    0.0000000000000000E+00    0.0000000000000000E+00    0.0000000000000000E+00    0.0000000000000000E+00
 -0.3871   0.5836    0.2966184700740276E-01    0.0000000000000000E+00    0.0000000000000000E+00   -0.4615659771909287E+00   -0.1600910821990878E-01    0.0000000000000000E+00    0.0000000000000000E+00    0.0000000000000000E+00    0.0000000000000000E+00    0.0000000000000000E+00
 -0.3887   0.5764    0.3299264227785743E-01    0.0000000000000000E+00    0.0000000000000000E+00   -0.4319378801875456E+00   -0.2987331445730500E-01    0.0000000000000000E+00    0.0000000000000000E+00    0.0000000000000000E+00    0.0000000000000000E+00    0.0000000000000000E+00
 -0.3906   0.5671    0.3697122820943089E-01    0.0000000000000000E+00    0.0000000000000000E+00   -0.3943030661760634E+00   -0.3711126324564088E-01    0.0000000000000000E+00    0.0000000000000000E+00    0.0000000000000000E+00    0.0000000000000000E+00    0.0000000000000000E+00
 -0.3930   0.5558    0.4132432930828522E-01    0.0000000000000000E+00    0.0000000000000000E+00   -0.3491909614481608E+00   -0.3240377604571217E-01    0.0000000000000000E+00    0.0000000000000000E+00    0.0000000000000000E+00    0.0000000000000000E+00    0.0000000000000000E+00
 -0.3958   0.5426    0.4572038346735451E-01    0.0000000000000000E+00    0.0000000000000000E+00   -0.2974369572117121E+00   -0.1604127925807345E-01    0.0000000000000000E+00    0.0000000000000000E+00    0.0000000000000000E+00    0.0000000000000000E+00    0.0000000000000000E+00
 -0.3990   0.5275    0.4979430403878774E-01    0.0000000000000000E+00    0.0000000000000000E+00   -0.2402703686424224E+00    0.5393096971353224E-02    0.0000000000000000E+00    0.0000000000000000E+00    0.0000000000000000E+00    0.0000000000000000E+00    0.0000000000000000E+00
 -0.4026   0.5106    0.5317792342301221E-01    0.0000000000000000E+00    0.0000000000000000E+00   -0.1793901931045551E+00    0.1915177184745702E-01    0.0000000000000000E+00    0.0000000000000000E+00    0.0000000000000000E+00    0.0000000000000000E+00    0.0000000000000000E+00
 -0.4066   0.4920    0.5553729699071818E-01    0.0000000000000000E+00    0.0000000000000000E+00   -0.1169980217136551E+00    0.7025558418856000E-02    0.0000000000000000E+00    0.0000000000000000E+00    0.0000000000000000E+00    0.0000000000000000E+00    0.0000000000000000E+00
 -0.4109   0.4717    0.5661361571477017E-01    0.0000000000000000E+00    0.0000000000000000E+00   -0.5573968699808964E-01   -0.5237080077806194E-01    0.0000000000000000E+00    0.0000000000000000E+00    0.0000000000000000E+00    0.0000000000000000E+00    0.0000000000000000E+00
 -0.4156   0.4498    0.5625785494411004E-01    0.0000000000000000E+00    0.0000000000000000E+00    0.1500394734126754E-02   -0.1795794515897090E+00    0.0000000000000000E+00    0.0000000000000000E+00    0.0000000000000000E+00    0.0000000000000000E+00    0.0000000000000000E+00
 -0.4205   0.4264    0.5444743203225765E-01    0.0000000000000000E+00    0.0000000000000000E+00    0.5198554091652089E-01   -0.3901757668494210E+00    0.0000000000000000E+00    0.0000000000000000E+00    0.0000000000000000E+00    0.0000000000000000E+00    0.0000000000000000E+00
 -0.4258   0.4017    0.5128023504207140E-01    0.0000000000000000E+00    0.0000000000000000E+00    0.9365150742293668E-01   -0.6932727591749333E+00    0.0000000000000000E+00    0.0000000000000000E+00    0.0000000000000000E+00    0.0000000000000000E+00    0.0000000000000000E+00
 -0.4313   0.3757    0.4695189741207412E-01    0.0000000000000000E+00    0.0000000000000000E+00    0.1256066905978387E+00   -0.1093525830070480E+01    0.0000000000000000E+00    0.0000000000000000E+00    0.0000000000000000E+00    0.0000000000000000E+00    0.0000000000000000E+00
 -0.4371   0.3485    0.4172722337047661E-01    0.0000000000000000E+00    0.0000000000000000E+00    0.1483613210312950E+00   -0.1594331669434286E+01    0.0000000000000000E+00    0.0000000000000000E+00    0.0000000000000000E+00    0.0000000000000000E+00    0.0000000000000000E+00
 -0.4431   0.3203    0.3591447840230082E-01    0.0000000000000000E+00    0.0000000000000000E+00    0.1636124615590222E+00   -0.2198847974643441E+01    0.0000000000000000E+00    0.0000000000000000E+00    0.0000000000000000E+00    0.0000000000000000E+00    0.0000000000000000E+00
 -0.4493   0.2911    0.2984745647025299E-01    0.0000000000000000E+00    0.0000000000000000E+00    0.1736524236938875E+00   -0.2907682596421138E+01    0.0000000000000000E+00    0.0000000000000000E+00    0.0000000000000000E+00    0.0000000000000000E+00    0.0000000000000000E+00
 -0.4557   0.2612    0.2387627608270398E-01    0.0000000000000000E+00    0.0000000000000000E+00    0.1806973528362759E+00   -0.3714827266940938E+01    0.0000000000000000E+00    0.0000000000000000E+00    0.0000000000000000E+00    0.0000000000000000E+00    0.0000000000000000E+00
 -0.4622   0.2305    0.1836241022267121E-01    0.0000000000000000E+00    0.0000000000000000E+00    0.1864450346145845E+00   -0.4604306607806855E+01    0.0000000000000000E+00    0.0000000000000000E+00    0.0000000000000000E+00    0.0000000000000000E+00    0.0000000000000000E+00
 -0.4688   0.1994    0.1366946118105774E-01    0.0000000000000000E+00    0.0000000000000000E+00    0.1919709156271265E+00   -0.5549142367386160E+01    0.0000000000000000E+00    0.0000000000000000E+00    0.0000000000000000E+00    0.0000000000000000E+00    0.0000000000000000E+00
 -0.4755   0.1678    0.1014351374297190E-01    0.0000000000000000E+00    0.0000000000000000E+00    0.1978585748210683E+00   -0.6512840302548725E+01    0.0000000000000000E+00    0.0000000000000000E+00    0.0000000000000000E+00    0.0000000000000000E+00    0.0000000000000000E+00
 -0.4823   0.1359    0.8083632958931834E-02    0.0000000000000000E+00    0.0000000000000000E+00    0.2043943783017769E+00   -0.7452481220236189E+01    0.0000000000000000E+00    0.0000000000000000E+00    0.0000000000000000E+00    0.0000000000000000E+00    0.0000000000000000E+00
 -0.4891   0.1040    0.7708340264485723E-02    0.0000000000000000E+00    0.0000000000000000E+00    0.2117182908572144E+00   -0.8322111271717391E+01    0.0000000000000000E+00    0.0000000000000000E+00    0.0000000000000000E+00    0.0000000000000000E+00    0.0000000000000000E+00
 -0.4959   0.0720    0.9124352057302915E-02    0.0000000000000000E+00    0.0000000000000000E+00    0.2199073134318385E+00   -0.9075478061296643E+01    0.0000000000000000E+00    0.0000000000000000E+00    0.0000000000000000E+00    0.0000000000000000E+00    0.0000000000000000E+00
 -0.5026   0.0401    0.1230140356250768E-01    0.0000000000000000E+00    0.0000000000000000E+00    0.2290108393455378E+00   -0.9667960127686264E+01    0.0000000000000000E+00    0.0000000000000000E+00    0.0000000000000000E+00    0.0000000000000000E+00    0.0000000000000000E+00
 -0.5094   0.0085    0.1705497808234084E-01    0.0000000000000000E+00    0.0000000000000000E+00    0.2390615727568329E+00   -0.1005828475222104E+02    0.0000000000000000E+00    0.0000000000000000E+00    0.0000000000000000E+00    0.0000000000000000E+00    0.0000000000000000E+00
 -0.5160  -0.0226    0.2303944438891489E-01    0.0000000000000000E+00    0.0000000000000000E+00    0.2500764943291554E+00   -0.1021098242879643E+02    0.0000000000000000E+00    0.0000000000000000E+00    0.0000000000000000E+00    0.0000000000000000E+00    0.0000000000000000E+00
 -0.5225  -0.0533    0.2975670524088601E-01    0.0000000000000000E+00    0.0000000000000000E+00    0.2620544412769815E+00   -0.1010029032340993E+02    0.0000000000000000E+00    0.0000000000000000E+00    0.0000000000000000E+00    0.0000000000000000E+00    0.0000000000000000E+00
 -0.5289  -0.0832    0.3658755924278932E-01    0.0000000000000000E+00    0.0000000000000000E+00    0.2749729807227824E+00   -0.9715448700824517E+01    0.0000000000000000E+00    0.0000000000000000E+00    0.0000000000000000E+00    0.0000000000000000E+00    0.0000000000000000E+00
 -0.5351  -0.1124    0.4285112980121337E-01    0.0000000000000000E+00    0.0000000000000000E+00    0.2887858338905270E+00   -0.9066236555460037E+01    0.0000000000000000E+00    0.0000000000000000E+00    0.0000000000000000E+00    0.0000000000000000E+00    0.0000000000000000E+00
 -0.5411  -0.1406    0.4789018581180706E-01    0.0000000000000000E+00    0.0000000000000000E+00    0.3034215516517311E+00   -0.8186630434858058E+01    0.0000000000000000E+00    0.0000000000000000E+00    0.0000000000000000E+00    0.0000000000000000E+00    0.0000000000000000E+00
 -0.5468  -0.1678    0.5116822253833091E-01    0.0000000000000000E+00    0.0000000000000000E+00    0.3187836363049859E+00   -0.7134247795886746E+01    0.0000000000000000E+00    0.0000000000000000E+00    0.0000000000000000E+00    0.0000000000000000E+00    0.0000000000000000E+00
 -0.5524  -0.1938    0.5235381488865107E-01    0.0000000000000000E+00    0.0000000000000000E+00    0.3347516132022776E+00   -0.5984240548315404E+01    0.0000000000000000E+00    0.0000000000000000E+00    0.0000000000000000E+00    0.0000000000000000E+00    0.0000000000000000E+00
 -0.5576  -0.2185    0.5136633940300511E-01    0.0000000000000000E+00    0.0000000000000000E+00    0.3511818280098409E+00   -0.4818393990413210E+01    0.0000000000000000E+00    0.0000000000000000E+00    0.0000000000000000E+00    0.0000000000000000E+00    0.0000000000000000E+00
 -0.5626  -0.2419    0.4836864569346756E-01    0.0000000000000000E+00    0.0000000000000000E+00    0.3679064209123271E+00   -0.3712364503759410E+01    0.0000000000000000E+00    0.0000000000000000E+00    0.0000000000000000E+00    0.0000000000000000E+00    0.0000000000000000E+00
 -0.5672  -0.2637    0.4371173866448630E-01    0.0000000000000000E+00    0.0000000000000000E+00    0.3847295486711609E+00   -0.2724965916570218E+01    0.0000000000000000E+00    0.0000000000000000E+00    0.0000000000000000E+00    0.0000000000000000E+00    0.0000000000000000E+00
 -0.5715  -0.2841    0.3785346810182062E-01    0.0000000000000000E+00    0.0000000000000000E+00    0.4014217404827967E+00   -0.1892485344357506E+01    0.0000000000000000E+00    0.0000000000000000E+00    0.0000000000000000E+00    0.0000000000000000E+00    0.0000000000000000E+00
 -0.5755  -0.3027    0.3127837570171556E-01    0.0000000000000000E+00    0.0000000000000000E+00    0.4177157570657027E+00   -0.1228817266571166E+01    0.0000000000000000E+00    0.0000000000000000E+00    0.0000000000000000E+00    0.0000000000000000E+00    0.0000000000000000E+00
 -0.5791  -0.3196    0.2443871272628616E-01    0.0000000000000000E+00    0.0000000000000000E+00    0.4333090080167448E+00   -0.7299390220099280E+00    0.0000000000000000E+00    0.0000000000000000E+00    0.0000000000000000E+00    0.0000000000000000E+00    0.0000000000000000E+00
 -0.5823  -0.3347    0.1772349806930169E-01    0.0000000000000000E+00    0.0000000000000000E+00    0.4478767170731877E+00   -0.3801402618870550E+00    0.0000000000000000E+00    0.0000000000000000E+00    0.0000000000000000E+00    0.0000000000000000E+00    0.0000000000000000E+00
 -0.5851  -0.3479    0.1145089294636969E-01    0.0000000000000000E+00    0.0000000000000000E+00    0.4610959746719674E+00   -0.1573915354117576E+00    0.0000000000000000E+00    0.0000000000000000E+00    0.0000000000000000E+00    0.0000000000000000E+00    0.0000000000000000E+00
 -0.5875  -0.3592    0.5872943564339251E-02    0.0000000000000000E+00    0.0000000000000000E+00    0.4726751576627514E+00   -0.3641642340583216E-01    0.0000000000000000E+00    0.0000000000000000E+00    0.0000000000000000E+00    0.0000000000000000E+00    0.0000000000000000E+00
 -0.5895  -0.3685    0.1180612066611292E-02    0.0000000000000000E+00    0.0000000000000000E+00    0.4823792311766367E+00    0.1073853012329547E-01    0.0000000000000000E+00    0.0000000000000000E+00    0.0000000000000000E+00    0.0000000000000000E+00    0.0000000000000000E+00
 -0.5910  -0.3757   -0.2498402605200665E-02    0.0000000000000000E+00    0.0000000000000000E+00    0.4900421005807264E+00    0.1436611037436955E-01    0.0000000000000000E+00    0.0000000000000000E+00    0.0000000000000000E+00    0.0000000000000000E+00    0.0000000000000000E+00
 -0.5921  -0.3809   -0.5108026503405915E-02    0.0000000000000000E+00    0.0000000000000000E+00    0.4955627405556428E+00    0.4378342671061088E-02    0.0000000000000000E+00    0.0000000000000000E+00    0.0000000000000000E+00    0.0000000000000000E+00    0.0000000000000000E+00
 -0.5928  -0.3841   -0.6663712632849123E-02    0.0000000000000000E+00    0.0000000000000000E+00    0.4988892859723593E+00   -0.1063508985236879E-03    0.0000000000000000E+00    0.0000000000000000E+00    0.0000000000000000E+00    0.0000000000000000E+00    0.0000000000000000E+00
 -0.5930  -0.3851   -0.7184149908830686E-02    0.0000000000000000E+00    0.0000000000000000E+00    0.5000000000000000E+00    0.0000000000000000E+00    0.0000000000000000E+00    0.0000000000000000E+00    0.0000000000000000E+00    0.0000000000000000E+00    0.0000000000000000E+00
 -0.3841   0.5928    0.2523437471909498E-01    0.0000000000000000E+00    0.0000000000000000E+00   -0.5000000000000000E+00   -0.6226127172332588E-04    0.0000000000000000E+00    0.0000000000000000E+00    0.0000000000000000E+00    0.0000000000000000E+00    0.0000000000000000E+00
 -0.3843   0.5918    0.2575371352068772E-01    0.2014951731633057E-06   -0.2015878551176775E-06   -0.4957145259062621E+00   -0.5464577237229004E-03   -0.1360024025359045E-09    0.1025868337218953E-08    0.2695223059491492E-12    0.2823880452390570E-12   -0.8560482617908649E-11
 -0.3850   0.5886    0.2728655636416162E-01    0.4219265638768064E-05   -0.1052612076864823E-05   -0.4828784784456670E+00   -0.3818728701042726E-02   -0.2274967720493705E-08    0.1027865898081334E-08    0.5472339161677331E-12    0.4087667704322229E-12   -0.3565313148878868E-10
 -0.3861   0.5834    0.2977034898562407E-01    0.1547525818027513E-04   -0.1208330813877082E-05   -0.4615650564665953E+00   -0.1292041501999359E-01   -0.8606126241123479E-08    0.1030366043354436E-08    0.5505353117829515E-12    0.4001859607583036E-12   -0.7976563333456088E-10
 -0.3876   0.5761    0.3309251941811540E-01    0.2914478506542872E-04   -0.7635320304336488E-06   -0.4319362386854829E+00   -0.2462130616098481E-01   -0.1607664889505821E-07    0.1033353424963884E-08    0.1954894579547783E-12    0.4327740422971349E-12   -0.1415748906996583E-09
 -0.3896   0.5669    0.3705949361939239E-01    0.3656046021274254E-04   -0.9927145476396495E-07   -0.3943005062376054E+00   -0.3122150044988526E-01   -0.2013911821422090E-07    0.1036800798481178E-08   -0.6901510612999928E-12    0.4307135160683262E-12   -0.2198779110174076E-09
 -0.3920   0.5556    0.4139974003113970E-01    0.3208924980804914E-04    0.4799361389372545E-06   -0.3491872967258624E+00   -0.2759565590603016E-01   -0.1762180666619978E-07    0.1040043292265501E-08   -0.2149337999246548E-11    0.4545478576867268E-12   -0.3133901020635488E-09
 -0.3948   0.5424    0.4578287580242008E-01    0.1595383392418735E-04    0.7692275985436827E-06   -0.2974320153021793E+00   -0.1381423640115622E-01   -0.8759092076546353E-08    0.1042521124549473E-08   -0.4062976517726913E-11    0.4640263867594641E-12   -0.4179696172501579E-09
 -0.3980   0.5273    0.4984463285711346E-01   -0.4980946642912839E-05    0.6590050398560155E-06   -0.2402640078455831E+00    0.3849401157599160E-02    0.2818167518258244E-08    0.1043848861081303E-08   -0.6225213053379086E-11    0.4747491462453457E-12   -0.5258343344083372E-09
 -0.4016   0.5104    0.5321756013232811E-01   -0.1730159403902874E-04    0.8361628696798628E-07   -0.1793823424563321E+00    0.1310771910102536E-01    0.9829522863736464E-08    0.1043942552696642E-08   -0.8391605119117962E-11    0.4475660564818434E-12   -0.6238757080390123E-09
 -0.4056   0.4917    0.5556824866713742E-01   -0.1811103550486394E-05   -0.9675445319132295E-06   -0.1169887435508995E+00   -0.3711043855242375E-02    0.1993276265544420E-08    0.1042814282625412E-08   -0.1037084307320413E-10    0.4154567315173274E-12   -0.6918108516607013E-09
 -0.4099   0.4714    0.5663816885791734E-01    0.6406778201406388E-04   -0.2429666772030320E-05   -0.5572924972024825E-01   -0.6738664617824992E-01   -0.3286911051084702E-07    0.1040203275945450E-08   -0.1204485122752175E-10    0.3902763529017861E-12   -0.7021220133074380E-09
 -0.4145   0.4496    0.5627820575710301E-01    0.2020696390983978E-03   -0.4155550954175948E-05    0.1511462242941997E-02   -0.1979920843559240E+00   -0.1064071290519609E-06    0.1035113440274460E-08   -0.1337988053684569E-10    0.3386145530637208E-12   -0.6225898685485731E-09
 -0.4195   0.4262    0.5446553559551754E-01    0.4287467824602323E-03   -0.5971346588270794E-05    0.5199646187054064E-01   -0.4108683183836038E+00   -0.2275268803642163E-06    0.1025427168524495E-08   -0.1438660302000017E-10    0.2839777024643553E-12   -0.4222686922350505E-09
 -0.4247   0.4015    0.5129788923516244E-01    0.7538516001998383E-03   -0.7753707980849241E-05    0.9366138599032876E-01   -0.7151303195341879E+00   -0.4014296704162181E-06    0.1007826488930164E-08   -0.1507233227115989E-10    0.2321823289186398E-12   -0.8251033190020962E-10
 -0.4303   0.3754    0.4697095199647959E-01    0.1182378139909564E-02   -0.9472441249789772E-05    0.1256147513356076E+00   -0.1115449454180628E+01   -0.6308028374643273E-06    0.9782933421687012E-09   -0.1540990945958498E-10    0.1826594431264539E-12    0.3908895637727561E-09
 -0.4360   0.3483    0.4174952694835034E-01    0.1717870069889008E-02   -0.1115227792934036E-04    0.1483671558414345E+00   -0.1615053915235113E+01   -0.9175470797004695E-06    0.9330274643171155E-09   -0.1531755972061788E-10    0.1070532551494807E-12    0.9613579168843422E-09
 -0.4420   0.3200    0.3594154181497092E-01    0.2363469194381124E-02   -0.1280106758404321E-04    0.1636161348375571E+00   -0.2216652213048728E+01   -0.1263396404606774E-05    0.8695754880050366E-09   -0.1467180543723856E-10   -0.1701416785238052E-13    0.1568289203363049E-08
 -0.4482   0.2909    0.2987996781599632E-01    0.3119481110524033E-02   -0.1435715557022615E-04    0.1736543680061364E+00   -0.2920208549043493E+01   -0.1668568370085738E-05    0.7875478637286992E-09   -0.1330584253889100E-10   -0.1103561686477406E-12    0.2144202910711601E-08
 -0.4546   0.2609    0.2391379480280643E-01    0.3979109918886878E-02   -0.1569136771279527E-04    0.1806981359152288E+00   -0.3719032720798943E+01   -0.2129495489166421E-05    0.6887507821018435E-09   -0.1100165965273181E-10   -0.2177563684924166E-12    0.2635391111067975E-08
 -0.4611   0.2303    0.1840330615986594E-01    0.4924968419680858E-02   -0.1664037733884693E-04    0.1864451497754811E+00   -0.4596617411357789E+01   -0.2636918440052777E-05    0.5770636087032432E-09   -0.7503889870585922E-11   -0.3469169396197458E-12    0.3013625222552394E-08
 -0.4677   0.1991    0.1371112172609905E-01    0.5928051855041162E-02   -0.1705262396072716E-04    0.1919706888793307E+00   -0.5525753624507795E+01   -0.3175335541330152E-05    0.4578833492918655E-09   -0.2581962421643880E-11   -0.4426042865546265E-12    0.3275326962339647E-08
 -0.4745   0.1676    0.1018264508552598E-01    0.6949377912737086E-02   -0.1681684186312710E-04    0.1978581774964710E+00   -0.6470108219240212E+01   -0.3723865633285192E-05    0.3378143528798283E-09    0.3885461397068468E-11   -0.5076356002220450E-12    0.3432835535797929E-08
 -0.4812   0.1357    0.8116585260106489E-02    0.7943304627780095E-02   -0.1587229780718750E-04    0.2043938826540146E+00   -0.7387332624415356E+01   -0.4258021901197569E-05    0.2240184149293611E-09    0.1174932373615434E-10   -0.5683786774568489E-12    0.3505340627138476E-08
 -0.4880   0.1037    0.7731317971463533E-02    0.8861139259878843E-02   -0.1419590563468793E-04    0.2117177201152902E+00   -0.8232410943583131E+01   -0.4751654371657034E-05    0.1235954116829419E-09    0.2071598448338818E-10   -0.5570405248178645E-12    0.3511449090699836E-08
 -0.4948   0.0717    0.9133545785674112E-02    0.9654036989680558E-02   -0.1178670585373654E-04    0.2199066713455142E+00   -0.8960344860573894E+01   -0.5178493332033189E-05    0.4300659134370832E-10    0.3014027916137252E-10   -0.5426492588611609E-12    0.3466561768541987E-08
 -0.5016   0.0399    0.1229303220609907E-01    0.1027504023910202E-01   -0.8652762606249018E-05    0.2290101237104989E+00   -0.9528026412090453E+01   -0.5513265722218746E-05   -0.1313696026961075E-10    0.3927286273963659E-10   -0.4623593174990503E-12    0.3382657308773074E-08
 -0.5083   0.0083    0.1702538314870165E-01    0.1068089394900966E-01   -0.4818628983024052E-05    0.2390607807342259E+00   -0.9895921550680089E+01   -0.5732644335932441E-05   -0.4230383751635536E-10    0.4733230474229799E-10   -0.3429895256701343E-12    0.3268777281836832E-08
 -0.5149  -0.0228    0.2298526863402804E-01    0.1083463340011694E-01   -0.3461277560024642E-06    0.2500756244575429E+00   -0.1003043832804532E+02   -0.5816673780995498E-05   -0.4506461111393467E-10    0.5345290876590525E-10   -0.1708709129050190E-12    0.3131664321961991E-08
 -0.5214  -0.0535    0.2967527160821638E-01    0.1070968024987830E-01    0.4628838005415832E-05    0.2620534941897614E+00   -0.9907690306823973E+01   -0.5750936768721415E-05   -0.2496327103362894E-10    0.5697409211080640E-10    0.2713454461122922E-13    0.2976107849744780E-08
 -0.5278  -0.0834    0.3647737075734700E-01    0.1029537020883238E-01    0.9867767739812036E-05    0.2749719591072321E+00   -0.9518509882914064E+01   -0.5529587196116260E-05    0.1158125678690780E-10    0.5742423203614067E-10    0.2341737914690611E-12    0.2805747790352031E-08
 -0.5340  -0.1126    0.4271244574565571E-01    0.9602688731730338E-02    0.1501808722956947E-04    0.2887847417236974E+00   -0.8873647971588545E+01   -0.5158396616015281E-05    0.5607041914101885E-10    0.5461897600866905E-10    0.4479056014972116E-12    0.2623855627562066E-08
 -0.5400  -0.1408    0.4772541129982572E-01    0.8668003096090294E-02    0.1964652323736086E-04    0.3034203927732126E+00   -0.8007063960690328E+01   -0.4656852045253369E-05    0.9946244522440750E-10    0.4882605431077991E-10    0.6678130270998395E-12    0.2432160495571822E-08
 -0.5458  -0.1680    0.5098197548298589E-01    0.7552367675746251E-02    0.2330914069663466E-04    0.3187824126956564E+00   -0.6975211080410309E+01   -0.4057723436286925E-05    0.1336860622203062E-09    0.4074196535697183E-10    0.8179706911803919E-12    0.2232724742937120E-08
 -0.5513  -0.1940    0.5215246632065697E-01    0.6335047184354764E-02    0.2565349652060638E-04    0.3347503237812427E+00   -0.5851011369779311E+01   -0.3403676752756179E-05    0.1533882743043335E-09    0.3134043025099231E-10    0.9420658697578688E-12    0.2027544757088329E-08
 -0.5566  -0.2187    0.5115716821293241E-01    0.5102075143221643E-02    0.2650239509179646E-04    0.3511804690896795E+00   -0.4713417966596801E+01   -0.2741003628950224E-05    0.1568073518254387E-09    0.2178163205357464E-10    0.1041902675247286E-11    0.1817888796093459E-08
 -0.5615  -0.2421    0.4815875226050974E-01    0.3932920050608157E-02    0.2589764334935199E-04    0.3679049893627027E+00   -0.3635224703206183E+01   -0.2112548124585008E-05    0.1456821260847896E-09    0.1312022712696148E-10    0.1076361222374089E-11    0.1606480283869449E-08
 -0.5662  -0.2640    0.4350714618234158E-01    0.2889318180620075E-02    0.2406805331123151E-04    0.3847280480428855E+00   -0.2672967673099178E+01   -0.1551532472105890E-05    0.1242319372374290E-09    0.6092071291874390E-11    0.1067604338267358E-11    0.1395443019816534E-08
 -0.5705  -0.2843    0.3765855527252901E-01    0.2009364606096387E-02    0.2135616586373401E-04    0.4014201888390838E+00   -0.1861511047795448E+01   -0.1078530869366931E-05    0.9766102510022634E-10    0.1051381204320023E-11    0.1069658250862915E-11    0.1188211471922496E-08
 -0.5745  -0.3029    0.3109585764768339E-01    0.1307661001678238E-02    0.1811333840457154E-04    0.4177141935400407E+00   -0.1214261052035366E+01   -0.7013491206279743E-06    0.7067032375962512E-10   -0.2039445001766893E-11    0.1010636019316280E-11    0.9877619607662202E-09
 -0.5781  -0.3198    0.2426992833836629E-01    0.7799874816044991E-03    0.1463062962124195E-04    0.4333074941810314E+00   -0.7273309442352897E+00   -0.4177840134557434E-06    0.4669417283387212E-10   -0.3492331424048700E-11    0.9988537774674455E-12    0.7977856673890837E-09
 -0.5813  -0.3349    0.1756894792902707E-01    0.4097806283178114E-03    0.1109330395793296E-04    0.4478753300783681E+00   -0.3855224634599736E+00   -0.2188378813676634E-06    0.2762328213390397E-10   -0.3769790035690335E-11    0.9828943214884589E-12    0.6217850158363181E-09
 -0.5841  -0.3481    0.1131055521216129E-01    0.1737208603669156E-03    0.7618788328341080E-05    0.4610947920480938E+00   -0.1672555649638692E+00   -0.9208923640255574E-07    0.1384849353247564E-10   -0.3347610383341859E-11    0.9547224122385956E-12    0.4630043935055506E-09
 -0.5865  -0.3594    0.5746300175231725E-02    0.4490340288786674E-04    0.4315119721134087E-05    0.4726742376481836E+00   -0.4760219298050778E-01   -0.2297241658275157E-07    0.4833798292191993E-11   -0.2656999620320732E-11    0.9292289160356404E-12    0.3249449528897053E-09
 -0.5884  -0.3687    0.1065963686419556E-02   -0.6471087399268002E-05    0.1444609196648303E-05    0.4823785956248378E+00    0.1255385051967788E-02    0.4308861676373275E-08   -0.8164931404597287E-12   -0.2006724647563018E-11    0.9423867936009245E-12    0.2094280547593197E-09
 -0.5900  -0.3759   -0.2605125138031003E-02   -0.1258956619334438E-04   -0.5573928471369091E-06    0.4900417278780714E+00    0.9012822150955509E-02    0.7284024297067946E-08   -0.4598149768927917E-11   -0.1568285432074212E-11    0.9291454324683590E-12    0.1179411212789971E-09
 -0.5911  -0.3812   -0.5214321855838515E-02   -0.4298421448465352E-05   -0.1104321846173556E-05    0.4955625722957754E+00    0.3742744620829654E-02    0.2309496530747504E-08   -0.8674110258191647E-11   -0.1302256046054051E-11    0.9850727004934168E-12    0.5272779435294694E-10
 -0.5918  -0.3843   -0.6772327666106359E-02   -0.1397814978289728E-06   -0.1400041898070393E-06    0.4988892437703129E+00    0.5863171906510571E-03    0.1200633618607783E-09   -0.1317940277311552E-10   -0.6990239550391797E-12    0.6941667293064446E-12    0.1300752051642401E-10
 -0.5920  -0.3853   -0.7292889148249231E-02    0.0000000000000000E+00    0.0000000000000000E+00    0.5000000000000000E+00   -0.1058182959323121E-03    0.0000000000000000E+00    0.0000000000000000E+00    0.0000000000000000E+00    0.0000000000000000E+00    0.0000000000000000E+00
 -0.3809   0.5921    0.2556934808848371E-01    0.0000000000000000E+00    0.0000000000000000E+00   -0.5000000000000000E+00   -0.4211296347715227E-02    0.0000000000000000E+00    0.0000000000000000E+00    0.0000000000000000E+00    0.0000000000000000E+00    0.0000000000000000E+00
 -0.3812   0.5911    0.2608629968673970E-01    0.1052053350201322E-05   -0.4218606480436227E-05   -0.4957130156198030E+00   -0.3817898815698925E-02   -0.2274618047070015E-08    0.1027614380090872E-08    0.3928794952128695E-12    0.4893778524778236E-12   -0.8875442373233733E-11
 -0.3818   0.5880    0.2761485714825321E-01    0.1273517202384776E-04   -0.1273781903541434E-04   -0.4828724302327764E+00   -0.3405340168009809E-02   -0.3112024834753484E-07    0.1028444831033259E-08    0.1222617493357170E-11    0.1224088322024364E-11   -0.3559727295918136E-10
 -0.3829   0.5827    0.3008871664615834E-01    0.4522784895882292E-04   -0.1584797864434209E-04   -0.4615514078712681E+00   -0.5847503008901403E-02   -0.1118552201640769E-06    0.1030305334971671E-08    0.1435275509553691E-11    0.1694370772159504E-11   -0.7967988595314335E-10
 -0.3845   0.5755    0.3338879215092173E-01    0.8760570600085431E-04   -0.1071381882115543E-04   -0.4319119166297538E+00   -0.1162268465361981E-01   -0.2136503948540670E-06    0.1032983149538980E-08    0.2095441875571424E-12    0.2107721549376995E-11   -0.1412117575649852E-09
 -0.3865   0.5662    0.3732420124442572E-01    0.1130384436617985E-03   -0.1710985270132056E-05   -0.3942625020940880E+00   -0.1631203965284404E-01   -0.2721025097441112E-06    0.1036144104977349E-08   -0.3008201326926141E-11    0.2444471599964693E-11   -0.2197127167702373E-09
 -0.3888   0.5549    0.4162809816103819E-01    0.1011464577894432E-03    0.6373277084361215E-05   -0.3491327183684788E+00   -0.1560017361370482E-01   -0.2411231939018193E-06    0.1039261145890924E-08   -0.8392089106967759E-11    0.2658856424961331E-11   -0.3132615798706606E-09
 -0.3917   0.5417    0.4597377556186776E-01    0.5218409749731652E-04    0.1031358605151374E-04   -0.2973581840590986E+00   -0.9194688329746299E-02   -0.1219174649583816E-06    0.1041746991621573E-08   -0.1554493209501850E-10    0.2718857691069720E-11   -0.4179393497949491E-09
 -0.3949   0.5266    0.4999968893743028E-01   -0.8411018951311887E-05    0.8229303669652440E-05   -0.2401687737956681E+00   -0.2409691643766837E-02    0.2939530741874554E-07    0.1043201948436323E-08   -0.2369357054304855E-10    0.2640163803725726E-11   -0.5259517613098730E-09