 title="result"
 variables="x","y","P","u","v","t","omega","psi","RES1","RES2","RES3","RES4"
zone,j= 49,i= 49,f=point
  0.5000   0.5000                       NaN    0.0000000000000000E+00    0.0000000000000000E+00   -0.5000000000000000E+00    0.0000000000000000E+00    0.0000000000000000E+00    0.0000000000000000E+00    0.0000000000000000E+00    0.0000000000000000E+00    0.0000000000000000E+00
  0.4989   0.5000                       NaN    0.0000000000000000E+00    0.0000000000000000E+00                       NaN                       NaN    0.0000000000000000E+00    0.0000000000000000E+00    0.0000000000000000E+00    0.0000000000000000E+00    0.0000000000000000E+00
  0.4957   0.5000                       NaN    0.0000000000000000E+00    0.0000000000000000E+00                       NaN                       NaN    0.0000000000000000E+00    0.0000000000000000E+00    0.0000000000000000E+00    0.0000000000000000E+00    0.0000000000000000E+00
  0.4904   0.5000                       NaN    0.0000000000000000E+00    0.0000000000000000E+00                       NaN                       NaN    0.0000000000000000E+00    0.0000000000000000E+00    0.0000000000000000E+00    0.0000000000000000E+00    0.0000000000000000E+00
  0.4830   0.5000                       NaN    0.0000000000000000E+00    0.0000000000000000E+00                       NaN                       NaN    0.0000000000000000E+00    0.0000000000000000E+00    0.0000000000000000E+00    0.0000000000000000E+00    0.0000000000000000E+00
  0.4735   0.5000                       NaN    0.0000000000000000E+00    0.0000000000000000E+00                       NaN                       NaN    0.0000000000000000E+00    0.0000000000000000E+00    0.0000000000000000E+00    0.0000000000000000E+00    0.0000000000000000E+00
  0.4619   0.5000                       NaN    0.0000000000000000E+00    0.0000000000000000E+00                       NaN                       NaN    0.0000000000000000E+00    0.0000000000000000E+00    0.0000000000000000E+00    0.0000000000000000E+00    0.0000000000000000E+00
  0.4484   0.5000                       NaN    0.0000000000000000E+00    0.0000000000000000E+00                       NaN                       NaN    0.0000000000000000E+00    0.0000000000000000E+00    0.0000000000000000E+00    0.0000000000000000E+00    0.0000000000000000E+00
  0.4330   0.5000                       NaN    0.0000000000000000E+00    0.0000000000000000E+00                       NaN                       NaN    0.0000000000000000E+00    0.0000000000000000E+00    0.0000000000000000E+00    0.0000000000000000E+00    0.0000000000000000E+00
  0.4157   0.5000                       NaN    0.0000000000000000E+00    0.0000000000000000E+00                       NaN                       NaN    0.0000000000000000E+00    0.0000000000000000E+00    0.0000000000000000E+00    0.0000000000000000E+00    0.0000000000000000E+00
  0.3967   0.5000                       NaN    0.0000000000000000E+00    0.0000000000000000E+00                       NaN                       NaN    0.0000000000000000E+00    0.0000000000000000E+00    0.0000000000000000E+00    0.0000000000000000E+00    0.0000000000000000E+00
  0.3759   0.5000                       NaN    0.0000000000000000E+00    0.0000000000000000E+00                       NaN                       NaN    0.0000000000000000E+00    0.0000000000000000E+00    0.0000000000000000E+00    0.0000000000000000E+00    0.0000000000000000E+00
  0.3536   0.5000                       NaN    0.0000000000000000E+00    0.0000000000000000E+00                       NaN                       NaN    0.0000000000000000E+00    0.0000000000000000E+00    0.0000000000000000E+00    0.0000000000000000E+00    0.0000000000000000E+00
  0.3297   0.5000                       NaN    0.0000000000000000E+00    0.0000000000000000E+00                       NaN                       NaN    0.0000000000000000E+00    0.0000000000000000E+00    0.0000000000000000E+00    0.0000000000000000E+00    0.0000000000000000E+00
  0.3044   0.5000                       NaN    0.0000000000000000E+00    0.0000000000000000E+00                       NaN                       NaN    0.0000000000000000E+00    0.0000000000000000E+00    0.0000000000000000E+00    0.0000000000000000E+00    0.0000000000000000E+00
  0.2778   0.5000                       NaN    0.0000000000000000E+00    0.0000000000000000E+00                       NaN                       NaN    0.0000000000000000E+00    0.0000000000000000E+00    0.0000000000000000E+00    0.0000000000000000E+00    0.0000000000000000E+00
  0.2500   0.5000                       NaN    0.0000000000000000E+00    0.0000000000000000E+00                       NaN                       NaN    0.0000000000000000E+00    0.0000000000000000E+00    0.0000000000000000E+00    0.0000000000000000E+00    0.0000000000000000E+00
  0.2211   0.5000                       NaN    0.0000000000000000E+00    0.0000000000000000E+00                       NaN                       NaN    0.0000000000000000E+00    0.0000000000000000E+00    0.0000000000000000E+00    0.0000000000000000E+00    0.0000000000000000E+00
  0.1913   0.5000                       NaN    0.0000000000000000E+00    0.0000000000000000E+00                       NaN                       NaN    0.0000000000000000E+00    0.0000000000000000E+00    0.0000000000000000E+00    0.0000000000000000E+00    0.0000000000000000E+00
  0.1607   0.5000                       NaN    0.0000000000000000E+00    0.0000000000000000E+00                       NaN                       NaN    0.0000000000000000E+00    0.0000000000000000E+00    0.0000000000000000E+00    0.0000000000000000E+00    0.0000000000000000E+00
  0.1294   0.5000                       NaN    0.0000000000000000E+00    0.0000000000000000E+00                       NaN                       NaN    0.0000000000000000E+00    0.0000000000000000E+00    0.0000000000000000E+00    0.0000000000000000E+00    0.0000000000000000E+00
  0.0975   0.5000                       NaN    0.0000000000000000E+00    0.0000000000000000E+00                       NaN                       NaN    0.0000000000000000E+00    0.0000000000000000E+00    0.0000000000000000E+00    0.0000000000000000E+00    0.0000000000000000E+00
  0.0653   0.5000                       NaN    0.0000000000000000E+00    0.0000000000000000E+00                       NaN                       NaN    0.0000000000000000E+00    0.0000000000000000E+00    0.0000000000000000E+00    0.0000000000000000E+00    0.0000000000000000E+00
  0.0327   0.5000                       NaN    0.0000000000000000E+00    0.0000000000000000E+00                       NaN                       NaN    0.0000000000000000E+00    0.0000000000000000E+00    0.0000000000000000E+00    0.0000000000000000E+00    0.0000000000000000E+00
  0.0000   0.5000                       NaN    0.0000000000000000E+00    0.0000000000000000E+00                       NaN                       NaN    0.0000000000000000E+00    0.0000000000000000E+00    0.0000000000000000E+00    0.0000000000000000E+00    0.0000000000000000E+00
 -0.0327   0.5000                       NaN    0.0000000000000000E+00    0.0000000000000000E+00                       NaN                       NaN    0.0000000000000000E+00    0.0000000000000000E+00    0.0000000000000000E+00    0.0000000000000000E+00    0.0000000000000000E+00
 -0.0653   0.5000                       NaN    0.0000000000000000E+00    0.0000000000000000E+00                       NaN                       NaN    0.0000000000000000E+00    0.0000000000000000E+00    0.0000000000000000E+00    0.0000000000000000E+00    0.0000000000000000E+00
 -0.0975   0.5000                       NaN    0.0000000000000000E+00    0.0000000000000000E+00                       NaN                       NaN    0.0000000000000000E+00    0.0000000000000000E+00    0.0000000000000000E+00    0.0000000000000000E+00    0.0000000000000000E+00
 -0.1294   0.5000                       NaN    0.0000000000000000E+00    0.0000000000000000E+00                       NaN                       NaN    0.0000000000000000E+00    0.0000000000000000E+00    0.0000000000000000E+00    0.0000000000000000E+00    0.0000000000000000E+00
 -0.1607   0.5000                       NaN    0.0000000000000000E+00    0.0000000000000000E+00                       NaN                       NaN    0.0000000000000000E+00    0.0000000000000000E+00    0.0000000000000000E+00    0.0000000000000000E+00    0.0000000000000000E+00
 -0.1913   0.5000                       NaN    0.0000000000000000E+00    0.0000000000000000E+00                       NaN                       NaN    0.0000000000000000E+00    0.0000000000000000E+00    0.0000000000000000E+00    0.0000000000000000E+00    0.0000000000000000E+00
 -0.2211   0.5000                       NaN    0.0000000000000000E+00    0.0000000000000000E+00                       NaN                       NaN    0.0000000000000000E+00    0.0000000000000000E+00    0.0000000000000000E+00    0.0000000000000000E+00    0.0000000000000000E+00
 -0.2500   0.5000                       NaN    0.0000000000000000E+00    0.0000000000000000E+00                       NaN                       NaN    0.0000000000000000E+00    0.0000000000000000E+00    0.0000000000000000E+00    0.0000000000000000E+00    0.0000000000000000E+00
 -0.2778   0.5000                       NaN    0.0000000000000000E+00    0.0000000000000000E+00                       NaN                       NaN    0.0000000000000000E+00    0.0000000000000000E+00    0.0000000000000000E+00    0.0000000000000000E+00    0.0000000000000000E+00
 -0.3044   0.5000                       NaN    0.0000000000000000E+00    0.0000000000000000E+00                       NaN                       NaN    0.0000000000000000E+00    0.0000000000000000E+00    0.0000000000000000E+00    0.0000000000000000E+00    0.0000000000000000E+00
 -0.3297   0.5000                       NaN    0.0000000000000000E+00    0.0000000000000000E+00                       NaN                       NaN    0.0000000000000000E+00    0.0000000000000000E+00    0.0000000000000000E+00    0.0000000000000000E+00    0.0000000000000000E+00
 -0.3536   0.5000                       NaN    0.0000000000000000E+00    0.0000000000000000E+00                       NaN                       NaN    0.0000000000000000E+00    0.0000000000000000E+00    0.0000000000000000E+00    0.0000000000000000E+00    0.0000000000000000E+00
 -0.3759   0.5000                       NaN    0.0000000000000000E+00    0.0000000000000000E+00                       NaN                       NaN    0.0000000000000000E+00    0.0000000000000000E+00    0.0000000000000000E+00    0.0000000000000000E+00    0.0000000000000000E+00
 -0.3967   0.5000                       NaN    0.0000000000000000E+00    0.0000000000000000E+00                       NaN                       NaN    0.0000000000000000E+00    0.0000000000000000E+00    0.0000000000000000E+00    0.0000000000000000E+00    0.0000000000000000E+00
 -0.4157   0.5000                       NaN    0.0000000000000000E+00    0.0000000000000000E+00                       NaN                       NaN    0.0000000000000000E+00    0.0000000000000000E+00    0.0000000000000000E+00    0.0000000000000000E+00    0.0000000000000000E+00
 -0.4330   0.5000                       NaN    0.0000000000000000E+00    0.0000000000000000E+00                       NaN                       NaN    0.0000000000000000E+00    0.0000000000000000E+00    0.0000000000000000E+00    0.0000000000000000E+00    0.0000000000000000E+00
 -0.4484   0.5000                       NaN    0.0000000000000000E+00    0.0000000000000000E+00                       NaN                       NaN    0.0000000000000000E+00    0.0000000000000000E+00    0.0000000000000000E+00    0.0000000000000000E+00    0.0000000000000000E+00
 -0.4619   0.5000                       NaN    0.0000000000000000E+00    0.0000000000000000E+00                       NaN                       NaN    0.0000000000000000E+00    0.0000000000000000E+00    0.0000000000000000E+00    0.0000000000000000E+00    0.0000000000000000E+00
 -0.4735   0.5000                       NaN    0.0000000000000000E+00    0.0000000000000000E+00                       NaN                       NaN    0.0000000000000000E+00    0.0000000000000000E+00    0.0000000000000000E+00    0.0000000000000000E+00    0.0000000000000000E+00
 -0.4830   0.5000                       NaN    0.0000000000000000E+00    0.0000000000000000E+00                       NaN                       NaN    0.0000000000000000E+00    0.0000000000000000E+00    0.0000000000000000E+00    0.0000000000000000E+00    0.0000000000000000E+00
 -0.4904   0.5000                       NaN    0.0000000000000000E+00    0.0000000000000000E+00                       NaN                       NaN    0.0000000000000000E+00    0.0000000000000000E+00    0.0000000000000000E+00    0.0000000000000000E+00    0.0000000000000000E+00
 -0.4957   0.5000                       NaN    0.0000000000000000E+00    0.0000000000000000E+00                       NaN                       NaN    0.0000000000000000E+00    0.0000000000000000E+00    0.0000000000000000E+00    0.0000000000000000E+00    0.0000000000000000E+00
 -0.4989   0.5000                       NaN    0.0000000000000000E+00    0.0000000000000000E+00                       NaN                       NaN    0.0000000000000000E+00    0.0000000000000000E+00    0.0000000000000000E+00    0.0000000000000000E+00    0.0000000000000000E+00
 -0.5000   0.5000                       NaN    0.0000000000000000E+00    0.0000000000000000E+00    0.5000000000000000E+00    0.0000000000000000E+00    0.0000000000000000E+00    0.0000000000000000E+00    0.0000000000000000E+00    0.0000000000000000E+00    0.0000000000000000E+00
  0.5000   0.4989                       NaN    0.0000000000000000E+00    0.0000000000000000E+00   -0.5000000000000000E+00                       NaN    0.0000000000000000E+00    0.0000000000000000E+00    0.0000000000000000E+00    0.0000000000000000E+00    0.0000000000000000E+00
  0.4989   0.4989                       NaN                       NaN                       NaN                       NaN                       NaN                       NaN                       NaN                       NaN                       NaN                       NaN
  0.4957   0.4989                       NaN                       NaN                       NaN                       NaN                       NaN                       NaN                       NaN                       NaN                       NaN                       NaN
  0.4904   0.4989                       NaN                       NaN                       NaN                       NaN                       NaN                       NaN                       NaN                       NaN                       NaN                       NaN
  0.4830   0.4989                       NaN                       NaN                       NaN                       NaN                       NaN                       NaN                       NaN                       NaN                       NaN                       NaN
  0.4735   0.4989                       NaN                       NaN                       NaN                       NaN                       NaN                       NaN                       NaN                       NaN                       NaN                       NaN
  0.4619   0.4989                       NaN                       NaN                       NaN                       NaN                       NaN                       NaN                       NaN                       NaN                       NaN                       NaN
  0.4484   0.4989                       NaN                       NaN                       NaN                       NaN                       NaN                       NaN                       NaN                       NaN                       NaN                       NaN
  0.4330   0.4989                       NaN                       NaN                       NaN                       NaN                       NaN                       NaN                       NaN                       NaN                       NaN                       NaN
  0.4157   0.4989                       NaN                       NaN                       NaN                       NaN                       NaN                       NaN                       NaN                       NaN                       NaN                       NaN
  0.3967   0.4989                       NaN                       NaN                       NaN                       NaN                       NaN                       NaN                       NaN                       NaN                       NaN                       NaN
  0.3759   0.4989                       NaN                       NaN                       NaN                       NaN                       NaN                       NaN                       NaN                       NaN                       NaN                       NaN
  0.3536   0.4989                       NaN                       NaN                       NaN                       NaN                       NaN                       NaN                       NaN                       NaN                       NaN                       NaN
  0.3297   0.4989                       NaN                       NaN                       NaN                       NaN                       NaN                       NaN                       NaN                       NaN                       NaN                       NaN
  0.3044   0.4989                       NaN                       NaN                       NaN                       NaN                       NaN                       NaN                       NaN                       NaN                       NaN                       NaN
  0.2778   0.4989                       NaN                       NaN                       NaN                       NaN                       NaN                       NaN                       NaN                       NaN                       NaN                       NaN
  0.2500   0.4989                       NaN                       NaN                       NaN                       NaN                       NaN                       NaN                       NaN                       NaN                       NaN                       NaN
  0.2211   0.4989                       NaN                       NaN                       NaN                       NaN                       NaN                       NaN                       NaN                       NaN                       NaN                       NaN
  0.1913   0.4989                       NaN                       NaN                       NaN                       NaN                       NaN                       NaN                       NaN                       NaN                       NaN                       NaN
  0.1607   0.4989                       NaN                       NaN                       NaN                       NaN                       NaN                       NaN                       NaN                       NaN                       NaN                       NaN
  0.1294   0.4989                       NaN                       NaN                       NaN                       NaN                       NaN                       NaN                       NaN                       NaN                       NaN                       NaN
  0.0975   0.4989                       NaN                       NaN                       NaN                       NaN                       NaN                       NaN                       NaN                       NaN                       NaN                       NaN
  0.0653   0.4989                       NaN                       NaN                       NaN                       NaN                       NaN                       NaN                       NaN                       NaN                       NaN                       NaN
  0.0327   0.4989                       NaN                       NaN                       NaN                       NaN                       NaN                       NaN                       NaN                       NaN                       NaN                       NaN
  0.0000   0.4989                       NaN                       NaN                       NaN                       NaN                       NaN                       NaN                       NaN                       NaN                       NaN                       NaN
 -0.0327   0.4989                       NaN                       NaN                       NaN                       NaN                       NaN                       NaN                       NaN                       NaN                       NaN                       NaN
 -0.0653   0.4989                       NaN                       NaN                       NaN                       NaN                       NaN                       NaN                       NaN                       NaN                       NaN                       NaN
 -0.0975   0.4989                       NaN                       NaN                       NaN                       NaN                       NaN                       NaN                       NaN                       NaN                       NaN                       NaN
 -0.1294   0.4989                       NaN                       NaN                       NaN                       NaN                       NaN                       NaN                       NaN                       NaN                       NaN                       NaN
 -0.1607   0.4989                       NaN                       NaN                       NaN                       NaN                       NaN                       NaN                       NaN                       NaN                       NaN                       NaN
 -0.1913   0.4989                       NaN                       NaN                       NaN                       NaN                       NaN                       NaN                       NaN                       NaN                       NaN                       NaN
 -0.2211   0.4989                       NaN                       NaN                       NaN                       NaN                       NaN                       NaN                       NaN                       NaN                       NaN                       NaN
 -0.2500   0.4989                       NaN                       NaN                       NaN                       NaN                       NaN                       NaN                       NaN                       NaN                       NaN                       NaN
 -0.2778   0.4989                       NaN                       NaN                       NaN                       NaN                       NaN                       NaN                       NaN                       NaN                       NaN                       NaN
 -0.3044   0.4989                       NaN                       NaN                       NaN                       NaN                       NaN                       NaN                       NaN                       NaN                       NaN                       NaN
 -0.3297   0.4989                       NaN                       NaN                       NaN                       NaN                       NaN                       NaN                       NaN                       NaN                       NaN                       NaN
 -0.3536   0.4989                       NaN                       NaN                       NaN                       NaN                       NaN                       NaN                       NaN                       NaN                       NaN                       NaN
 -0.3759   0.4989                       NaN                       NaN                       NaN                       NaN                       NaN                       NaN                       NaN                       NaN                       NaN                       NaN
 -0.3967   0.4989                       NaN                       NaN                       NaN                       NaN                       NaN                       NaN                       NaN                       NaN                       NaN                       NaN
 -0.4157   0.4989                       NaN                       NaN                       NaN                       NaN                       NaN                       NaN                       NaN                       NaN                       NaN                       NaN
 -0.4330   0.4989                       NaN                       NaN                       NaN                       NaN                       NaN                       NaN                       NaN                       NaN                       NaN                       NaN
 -0.4484   0.4989                       NaN                       NaN                       NaN                       NaN                       NaN                       NaN                       NaN                       NaN                       NaN                       NaN
 -0.4619   0.4989                       NaN                       NaN                       NaN                       NaN                       NaN                       NaN                       NaN                       NaN                       NaN                       NaN
 -0.4735   0.4989                       NaN                       NaN                       NaN                       NaN                       NaN                       NaN                       NaN                       NaN                       NaN                       NaN
 -0.4830   0.4989                       NaN                       NaN                       NaN                       NaN                       NaN                       NaN                       NaN                       NaN                       NaN                       NaN
 -0.4904   0.4989                       NaN                       NaN                       NaN                       NaN                       NaN                       NaN                       NaN                       NaN                       NaN                       NaN
 -0.4957   0.4989                       NaN                       NaN                       NaN                       NaN                       NaN                       NaN                       NaN                       NaN                       NaN                       NaN
 -0.4989   0.4989                       NaN                       NaN                       NaN                       NaN                       NaN                       NaN                       NaN                       NaN                       NaN                       NaN
 -0.5000   0.4989                       NaN    0.0000000000000000E+00    0.0000000000000000E+00    0.5000000000000000E+00                       NaN    0.0000000000000000E+00    0.0000000000000000E+00    0.0000000000000000E+00    0.0000000000000000E+00    0.0000000000000000E+00
  0.5000   0.4957                       NaN    0.0000000000000000E+00    0.0000000000000000E+00   -0.5000000000000000E+00                       NaN    0.0000000000000000E+00    0.0000000000000000E+00    0.0000000000000000E+00    0.0000000000000000E+00    0.0000000000000000E+00
  0.4989   0.4957                       NaN                       NaN                       NaN                       NaN                       NaN                       NaN                       NaN                       NaN                       NaN                       NaN
  0.4957   0.4957                       NaN                       NaN                       NaN                       NaN                       NaN                       NaN                       NaN                       NaN                       NaN                       NaN
  0.4904   0.4957                       NaN                       NaN                       NaN                       NaN                       NaN                       NaN                       NaN                       NaN                       NaN                       NaN
  0.4830   0.4957                       NaN                       NaN                       NaN                       NaN                       NaN                       NaN                       NaN                       NaN                       NaN                       NaN
  0.4735   0.4957                       NaN                       NaN                       NaN                       NaN                       NaN                       NaN                       NaN                       NaN                       NaN                       NaN
  0.4619   0.4957                       NaN                       NaN                       NaN                       NaN                       NaN                       NaN                       NaN                       NaN                       NaN                       NaN
  0.4484   0.4957                       NaN                       NaN                       NaN                       NaN                       NaN                       NaN                       NaN                       NaN                       NaN                       NaN
  0.4330   0.4957                       NaN                       NaN                       NaN                       NaN                       NaN                       NaN                       NaN                       NaN                       NaN                       NaN