 title="result"
 variables="x","y","P","u","v","t","omega","psi","RES1","RES2","RES3","RES4"
zone,j= 49,i= 49,f=point
 -0.4813   0.5181    0.2341822538914958E-01    0.0000000000000000E+00    0.0000000000000000E+00   -0.5000000000000000E+00    0.0000000000000000E+00    0.0000000000000000E+00    0.0000000000000000E+00    0.0000000000000000E+00    0.0000000000000000E+00    0.0000000000000000E+00
 -0.4813   0.5170    0.2394854173015580E-01    0.0000000000000000E+00    0.0000000000000000E+00   -0.4962598522560763E+00   -0.3329851484278691E-03    0.0000000000000000E+00    0.0000000000000000E+00    0.0000000000000000E+00    0.0000000000000000E+00    0.0000000000000000E+00
 -0.4814   0.5138    0.2553190370671979E-01    0.0000000000000000E+00    0.0000000000000000E+00   -0.4850568697477861E+00   -0.4547110115538231E-02    0.0000000000000000E+00    0.0000000000000000E+00    0.0000000000000000E+00    0.0000000000000000E+00    0.0000000000000000E+00
 -0.4816   0.5085    0.2813151162379731E-01    0.0000000000000000E+00    0.0000000000000000E+00   -0.4664517959095869E+00   -0.3133962556881336E-02    0.0000000000000000E+00    0.0000000000000000E+00    0.0000000000000000E+00    0.0000000000000000E+00    0.0000000000000000E+00
 -0.4819   0.5010    0.3161465034783583E-01    0.0000000000000000E+00    0.0000000000000000E+00   -0.4405712504683194E+00    0.2583283151051937E-01    0.0000000000000000E+00    0.0000000000000000E+00    0.0000000000000000E+00    0.0000000000000000E+00    0.0000000000000000E+00
 -0.4822   0.4915    0.3572799236950926E-01    0.0000000000000000E+00    0.0000000000000000E+00   -0.4076356264562390E+00    0.9708060787179804E-01    0.0000000000000000E+00    0.0000000000000000E+00    0.0000000000000000E+00    0.0000000000000000E+00    0.0000000000000000E+00
 -0.4827   0.4800    0.4014130530484374E-01    0.0000000000000000E+00    0.0000000000000000E+00   -0.3679820963396598E+00    0.2094299901084377E+00    0.0000000000000000E+00    0.0000000000000000E+00    0.0000000000000000E+00    0.0000000000000000E+00    0.0000000000000000E+00
 -0.4832   0.4665    0.4448888246504144E-01    0.0000000000000000E+00    0.0000000000000000E+00   -0.3220854337290473E+00    0.3455446646790679E+00    0.0000000000000000E+00    0.0000000000000000E+00    0.0000000000000000E+00    0.0000000000000000E+00    0.0000000000000000E+00
 -0.4837   0.4511    0.4841098442876110E-01    0.0000000000000000E+00    0.0000000000000000E+00   -0.2705988424611848E+00    0.4757316735918372E+00    0.0000000000000000E+00    0.0000000000000000E+00    0.0000000000000000E+00    0.0000000000000000E+00    0.0000000000000000E+00
 -0.4844   0.4339    0.5158647207384073E-01    0.0000000000000000E+00    0.0000000000000000E+00   -0.2144449134397985E+00    0.5647306530203376E+00    0.0000000000000000E+00    0.0000000000000000E+00    0.0000000000000000E+00    0.0000000000000000E+00    0.0000000000000000E+00
 -0.4851   0.4148    0.5375597792087999E-01    0.0000000000000000E+00    0.0000000000000000E+00   -0.1549681067025004E+00    0.5799460982956045E+00    0.0000000000000000E+00    0.0000000000000000E+00    0.0000000000000000E+00    0.0000000000000000E+00    0.0000000000000000E+00
 -0.4858   0.3941    0.5473083735595213E-01    0.0000000000000000E+00    0.0000000000000000E+00   -0.9410881714484619E-01    0.4990058917957907E+00    0.0000000000000000E+00    0.0000000000000000E+00    0.0000000000000000E+00    0.0000000000000000E+00    0.0000000000000000E+00
 -0.4866   0.3717    0.5439385355646263E-01    0.0000000000000000E+00    0.0000000000000000E+00   -0.3448449758600645E-01    0.3133408348653531E+00    0.0000000000000000E+00    0.0000000000000000E+00    0.0000000000000000E+00    0.0000000000000000E+00    0.0000000000000000E+00
 -0.4875   0.3479    0.5270126288843950E-01    0.0000000000000000E+00    0.0000000000000000E+00    0.2079051310110863E-01    0.2592527964775437E-01    0.0000000000000000E+00    0.0000000000000000E+00    0.0000000000000000E+00    0.0000000000000000E+00    0.0000000000000000E+00
 -0.4885   0.3226    0.4969401328883147E-01    0.0000000000000000E+00    0.0000000000000000E+00    0.6866084775071055E-01   -0.3555202780167236E+00    0.0000000000000000E+00    0.0000000000000000E+00    0.0000000000000000E+00    0.0000000000000000E+00    0.0000000000000000E+00
 -0.4894   0.2960    0.4551067648682585E-01    0.0000000000000000E+00    0.0000000000000000E+00    0.1069543868410528E+00   -0.8254251676322576E+00    0.0000000000000000E+00    0.0000000000000000E+00    0.0000000000000000E+00    0.0000000000000000E+00    0.0000000000000000E+00
 -0.4905   0.2682    0.4038650310210930E-01    0.0000000000000000E+00    0.0000000000000000E+00    0.1350867036635040E+00   -0.1383420796871801E+01    0.0000000000000000E+00    0.0000000000000000E+00    0.0000000000000000E+00    0.0000000000000000E+00    0.0000000000000000E+00
 -0.4915   0.2394    0.3463137093230087E-01    0.0000000000000000E+00    0.0000000000000000E+00    0.1541987716836834E+00   -0.2032678649586181E+01    0.0000000000000000E+00    0.0000000000000000E+00    0.0000000000000000E+00    0.0000000000000000E+00    0.0000000000000000E+00
 -0.4926   0.2096    0.2859916505216134E-01    0.0000000000000000E+00    0.0000000000000000E+00    0.1666057820446875E+00   -0.2775253324291042E+01    0.0000000000000000E+00    0.0000000000000000E+00    0.0000000000000000E+00    0.0000000000000000E+00    0.0000000000000000E+00
 -0.4937   0.1790    0.2266449315583302E-01    0.0000000000000000E+00    0.0000000000000000E+00    0.1749007245565951E+00   -0.3606525360200637E+01    0.0000000000000000E+00    0.0000000000000000E+00    0.0000000000000000E+00    0.0000000000000000E+00    0.0000000000000000E+00
 -0.4949   0.1477    0.1720967978612901E-01    0.0000000000000000E+00    0.0000000000000000E+00    0.1812286555577060E+00   -0.4510777896471631E+01    0.0000000000000000E+00    0.0000000000000000E+00    0.0000000000000000E+00    0.0000000000000000E+00    0.0000000000000000E+00
 -0.4961   0.1159    0.1261147523325898E-01    0.0000000000000000E+00    0.0000000000000000E+00    0.1870082369499568E+00   -0.5459542452704404E+01    0.0000000000000000E+00    0.0000000000000000E+00    0.0000000000000000E+00    0.0000000000000000E+00    0.0000000000000000E+00
 -0.4973   0.0836    0.9218154616708066E-02    0.0000000000000000E+00    0.0000000000000000E+00    0.1930244428018200E+00   -0.6413185086832498E+01    0.0000000000000000E+00    0.0000000000000000E+00    0.0000000000000000E+00    0.0000000000000000E+00    0.0000000000000000E+00
 -0.4985   0.0511    0.7316040195540346E-02    0.0000000000000000E+00    0.0000000000000000E+00    0.1996599985968252E+00   -0.7324668378144565E+01    0.0000000000000000E+00    0.0000000000000000E+00    0.0000000000000000E+00    0.0000000000000000E+00    0.0000000000000000E+00
 -0.4997   0.0184    0.7092129422525610E-02    0.0000000000000000E+00    0.0000000000000000E+00    0.2070941572347522E+00   -0.8143897274450826E+01    0.0000000000000000E+00    0.0000000000000000E+00    0.0000000000000000E+00    0.0000000000000000E+00    0.0000000000000000E+00
 -0.5009  -0.0143    0.8600471615032090E-02    0.0000000000000000E+00    0.0000000000000000E+00    0.2154181205144211E+00   -0.8821500303115625E+01    0.0000000000000000E+00    0.0000000000000000E+00    0.0000000000000000E+00    0.0000000000000000E+00    0.0000000000000000E+00
 -0.5021  -0.0468    0.1173806420202299E-01    0.0000000000000000E+00    0.0000000000000000E+00    0.2246857461642412E+00   -0.9311888287459690E+01    0.0000000000000000E+00    0.0000000000000000E+00    0.0000000000000000E+00    0.0000000000000000E+00    0.0000000000000000E+00
 -0.5033  -0.0791    0.1623371423477290E-01    0.0000000000000000E+00    0.0000000000000000E+00    0.2349302749900092E+00   -0.9576143850656463E+01    0.0000000000000000E+00    0.0000000000000000E+00    0.0000000000000000E+00    0.0000000000000000E+00    0.0000000000000000E+00
 -0.5044  -0.1109    0.2165376381687892E-01    0.0000000000000000E+00    0.0000000000000000E+00    0.2461671428437695E+00   -0.9585519662255189E+01    0.0000000000000000E+00    0.0000000000000000E+00    0.0000000000000000E+00    0.0000000000000000E+00    0.0000000000000000E+00
 -0.5056  -0.1422    0.2742944611241436E-01    0.0000000000000000E+00    0.0000000000000000E+00    0.2583922092394834E+00   -0.9325824450227939E+01    0.0000000000000000E+00    0.0000000000000000E+00    0.0000000000000000E+00    0.0000000000000000E+00    0.0000000000000000E+00
 -0.5067  -0.1728    0.3291009425306408E-01    0.0000000000000000E+00    0.0000000000000000E+00    0.2715791416317325E+00   -0.8802102459674042E+01    0.0000000000000000E+00    0.0000000000000000E+00    0.0000000000000000E+00    0.0000000000000000E+00    0.0000000000000000E+00
 -0.5078  -0.2026    0.3744100291807189E-01    0.0000000000000000E+00    0.0000000000000000E+00    0.2856774934870390E+00   -0.8042023722850491E+01    0.0000000000000000E+00    0.0000000000000000E+00    0.0000000000000000E+00    0.0000000000000000E+00    0.0000000000000000E+00
 -0.5089  -0.2314    0.4045545918352252E-01    0.0000000000000000E+00    0.0000000000000000E+00    0.3006120828432400E+00   -0.7096002835602327E+01    0.0000000000000000E+00    0.0000000000000000E+00    0.0000000000000000E+00    0.0000000000000000E+00    0.0000000000000000E+00
 -0.5099  -0.2592    0.4156054206536884E-01    0.0000000000000000E+00    0.0000000000000000E+00    0.3162835544782902E+00   -0.6032585045179694E+01    0.0000000000000000E+00    0.0000000000000000E+00    0.0000000000000000E+00    0.0000000000000000E+00    0.0000000000000000E+00
 -0.5109  -0.2858    0.4059283694363568E-01    0.0000000000000000E+00    0.0000000000000000E+00    0.3325692468527344E+00   -0.4929262878237284E+01    0.0000000000000000E+00    0.0000000000000000E+00    0.0000000000000000E+00    0.0000000000000000E+00    0.0000000000000000E+00
 -0.5118  -0.3110    0.3762723199262327E-01    0.0000000000000000E+00    0.0000000000000000E+00    0.3493229177209010E+00   -0.3860819041542651E+01    0.0000000000000000E+00    0.0000000000000000E+00    0.0000000000000000E+00    0.0000000000000000E+00    0.0000000000000000E+00
 -0.5127  -0.3349    0.3293811787116425E-01    0.0000000000000000E+00    0.0000000000000000E+00    0.3663719958153625E+00   -0.2888565527109987E+01    0.0000000000000000E+00    0.0000000000000000E+00    0.0000000000000000E+00    0.0000000000000000E+00    0.0000000000000000E+00
 -0.5135  -0.3573    0.2692903021068353E-01    0.0000000000000000E+00    0.0000000000000000E+00    0.3835122304986289E+00   -0.2053519953097379E+01    0.0000000000000000E+00    0.0000000000000000E+00    0.0000000000000000E+00    0.0000000000000000E+00    0.0000000000000000E+00
 -0.5143  -0.3780    0.2005519104842831E-01    0.0000000000000000E+00    0.0000000000000000E+00    0.4005017964397202E+00   -0.1374906147798129E+01    0.0000000000000000E+00    0.0000000000000000E+00    0.0000000000000000E+00    0.0000000000000000E+00    0.0000000000000000E+00
 -0.5150  -0.3970    0.1276026974267011E-01    0.0000000000000000E+00    0.0000000000000000E+00    0.4170590942434984E+00   -0.8532619109213527E+00    0.0000000000000000E+00    0.0000000000000000E+00    0.0000000000000000E+00    0.0000000000000000E+00    0.0000000000000000E+00
 -0.5156  -0.4143    0.5437790314247768E-02    0.0000000000000000E+00    0.0000000000000000E+00    0.4328690603536835E+00   -0.4760647211217611E+00    0.0000000000000000E+00    0.0000000000000000E+00    0.0000000000000000E+00    0.0000000000000000E+00    0.0000000000000000E+00
 -0.5162  -0.4297   -0.1583511991261161E-02    0.0000000000000000E+00    0.0000000000000000E+00    0.4476005416678549E+00   -0.2235055753112160E+00    0.0000000000000000E+00    0.0000000000000000E+00    0.0000000000000000E+00    0.0000000000000000E+00    0.0000000000000000E+00
 -0.5167  -0.4432   -0.8038633887715441E-02    0.0000000000000000E+00    0.0000000000000000E+00    0.4609326148261063E+00   -0.7266104692384151E-01    0.0000000000000000E+00    0.0000000000000000E+00    0.0000000000000000E+00    0.0000000000000000E+00    0.0000000000000000E+00
 -0.5171  -0.4547   -0.1371929517562586E-01    0.0000000000000000E+00    0.0000000000000000E+00    0.4725829255767707E+00    0.5503668027138706E-03    0.0000000000000000E+00    0.0000000000000000E+00    0.0000000000000000E+00    0.0000000000000000E+00    0.0000000000000000E+00
 -0.5174  -0.4642   -0.1847003807166847E-01    0.0000000000000000E+00    0.0000000000000000E+00    0.4823290947191363E+00    0.2114613432055313E-01    0.0000000000000000E+00    0.0000000000000000E+00    0.0000000000000000E+00    0.0000000000000000E+00    0.0000000000000000E+00
 -0.5177  -0.4717   -0.2219001396363295E-01    0.0000000000000000E+00    0.0000000000000000E+00    0.4900165483205120E+00    0.1449682894658520E-01    0.0000000000000000E+00    0.0000000000000000E+00    0.0000000000000000E+00    0.0000000000000000E+00    0.0000000000000000E+00
 -0.5179  -0.4770   -0.2483797098053029E-01    0.0000000000000000E+00    0.0000000000000000E+00    0.4955518420088815E+00    0.3438117718133879E-02    0.0000000000000000E+00    0.0000000000000000E+00    0.0000000000000000E+00    0.0000000000000000E+00    0.0000000000000000E+00
 -0.5180  -0.4802   -0.2642519105820624E-01    0.0000000000000000E+00    0.0000000000000000E+00    0.4988865866734268E+00   -0.1501445264211204E-03    0.0000000000000000E+00    0.0000000000000000E+00    0.0000000000000000E+00    0.0000000000000000E+00    0.0000000000000000E+00
 -0.5181  -0.4813   -0.2695770941637394E-01    0.0000000000000000E+00    0.0000000000000000E+00    0.5000000000000000E+00    0.0000000000000000E+00    0.0000000000000000E+00    0.0000000000000000E+00    0.0000000000000000E+00    0.0000000000000000E+00    0.0000000000000000E+00
 -0.4802   0.5180    0.2344051479797405E-01    0.0000000000000000E+00    0.0000000000000000E+00   -0.5000000000000000E+00   -0.3330186439600066E-03    0.0000000000000000E+00    0.0000000000000000E+00    0.0000000000000000E+00    0.0000000000000000E+00    0.0000000000000000E+00
 -0.4802   0.5170    0.2397075818530432E-01    0.3373393834930934E-06   -0.3373830982658487E-06   -0.4962597796570236E+00   -0.5498432922846138E-03   -0.2388112187387248E-09    0.7112982285421496E-09    0.2434786313537662E-12    0.2447105018621443E-12   -0.7887508408997018E-11
 -0.4803   0.5138    0.2555240886206396E-01    0.3382932606761630E-05   -0.5246303055068952E-06   -0.4850565818221446E+00   -0.1741689855502756E-02   -0.2024106454558690E-08    0.7130106627730240E-09    0.4961447919171746E-12    0.3582726563339245E-12   -0.3141152333900610E-10
 -0.4805   0.5084    0.2814442330339099E-01    0.2533175239739966E-06    0.1100120971942410E-05   -0.4664511691312677E+00    0.2793113966093119E-02   -0.7032034664948245E-09    0.7150587552628984E-09    0.5559563226453790E-12    0.3250932509302196E-12   -0.7041998494744517E-10
 -0.4808   0.5010    0.3161602594548898E-01   -0.3051696108654978E-04    0.3240989989416597E-05   -0.4405702099974992E+00    0.3124162272095893E-01    0.1586342613309325E-07    0.7176245960319183E-09    0.4312505214043583E-12    0.3395374259529405E-12   -0.1248519248056579E-09
 -0.4812   0.4915    0.3571965857892744E-01   -0.1046044008101379E-03    0.4993810913015408E-05   -0.4076341496216420E+00    0.9838541629418042E-01    0.5586151834052599E-07    0.7210897521453541E-09   -0.3982274579539258E-13    0.3842551277166706E-12   -0.1951919285925197E-09
 -0.4816   0.4800    0.4012757819364195E-01   -0.2213641854861208E-03    0.5755155543655309E-05   -0.3679801723774612E+00    0.2041172555675112E+00    0.1190120942682702E-06    0.7252484689190819E-09   -0.9716689258754130E-12    0.3887098976029790E-12   -0.2824719156496736E-09
 -0.4821   0.4665    0.4447514974613345E-01   -0.3629867408906537E-03    0.5397529412180812E-05   -0.3220829981197277E+00    0.3325680408376410E+00    0.1955181740299917E-06    0.7298575181724498E-09   -0.2393536757683279E-11    0.4075698112337989E-12   -0.3862039403557116E-09
 -0.4827   0.4511    0.4840221226177094E-01   -0.4984266871459450E-03    0.3963982190108022E-05   -0.2705957195462946E+00    0.4553877720179366E+00    0.2687336913374244E-06    0.7346365330299087E-09   -0.4257830199527746E-11    0.4284905763540792E-12   -0.5037605749214080E-09
 -0.4833   0.4338    0.5158643971060940E-01   -0.5905372861585012E-03    0.1743609641265403E-05   -0.2144408020064962E+00    0.5384703584994048E+00    0.3185842245011937E-06    0.7395048839779761E-09   -0.6470837754513070E-11    0.4068845954607880E-12   -0.6302518819334413E-09
 -0.4840   0.4148    0.5376657601652407E-01   -0.6047868591361719E-03   -0.8977652756808414E-06   -0.1549626375815797E+00    0.5498726657250330E+00    0.3265898422991583E-06    0.7444879417811689E-09   -0.8907194426477361E-11    0.4059756003593762E-12   -0.7515740321761832E-09
 -0.4848   0.3940    0.5475206749852851E-01   -0.5172664755658325E-03   -0.3536647405810705E-05   -0.9410170028938025E-01    0.4673163681926415E+00    0.2798874138705474E-06    0.7495756498138162E-09   -0.1144427608235077E-10    0.3663146175281184E-12   -0.8429113032559776E-09
 -0.4856   0.3717    0.5442428427623593E-01   -0.3185637668383673E-03   -0.5881155575508652E-05   -0.3447573855992894E-01    0.2817675403201120E+00    0.1735293979407243E-06    0.7541735083660406E-09   -0.1397411353298850E-10    0.3727330943892326E-12   -0.8666503695242689E-09
 -0.4865   0.3478    0.5273904417070674E-01   -0.1149899861799427E-04   -0.7806326934974039E-05    0.2080042273982564E-01   -0.4469964688104712E-02    0.9048172173049876E-08    0.7565952222371441E-09   -0.1640723668039357E-10    0.3376951496214531E-12   -0.7767473469977304E-09
 -0.4874   0.3225    0.4973774094794487E-01    0.3959425322291896E-03   -0.9393514515567145E-05    0.6867092493055760E-01   -0.3842103742279215E+00   -0.2091966364595347E-06    0.7535747928444358E-09   -0.1864862431144587E-10    0.2678343657969151E-12   -0.5333914004923557E-09
 -0.4884   0.2960    0.4555985304554408E-01    0.8978663353768554E-03   -0.1079863635892307E-04    0.1069634368700640E+00   -0.8520037396502019E+00   -0.4780684319962798E-06    0.7405950401551120E-09   -0.2057298775781646E-10    0.1975641872320466E-12   -0.1228920576412662E-09
 -0.4894   0.2682    0.4044133370429432E-01    0.1493722822630610E-02   -0.1217060100110988E-04    0.1350937783238151E+00   -0.1407197899999689E+01   -0.7972736473015952E-06    0.7128729932748268E-09   -0.2202520110738959E-10    0.1211322708805085E-12    0.4268436784582441E-09
 -0.4905   0.2394    0.3469228011691874E-01    0.2186586240987675E-02   -0.1355448484261266E-04    0.1542035169872699E+00   -0.2052357523621019E+01   -0.1168538151720701E-05    0.6668162098877328E-09   -0.2281260597092327E-10    0.9672818102046676E-14    0.1050505418764835E-08
 -0.4915   0.2096    0.2866618611360142E-01    0.2978235074329919E-02   -0.1489784560496447E-04    0.1666084522240368E+00   -0.2788754258965833E+01   -0.1592868532202332E-05    0.6009470213119705E-09   -0.2272475263520590E-10   -0.9343914531001474E-13    0.1667496581786443E-08
 -0.4927   0.1790    0.2273683783089283E-01    0.3863290076398168E-02   -0.1604781500672212E-04    0.1749019082968900E+00   -0.3610953207190084E+01   -0.2067480354232434E-05    0.5163029032084765E-09   -0.2149856855038212E-10   -0.2041700142285663E-12    0.2210597568712280E-08
 -0.4938   0.1477    0.1728550343019958E-01    0.4824587758936668E-02   -0.1681344543720169E-04    0.1812289526388194E+00   -0.4502609208703682E+01   -0.2583231594713828E-05    0.4160594646585025E-09   -0.1882722797108549E-10   -0.3118616476172065E-12    0.2641916506743169E-08
 -0.4950   0.1158    0.1268797324294796E-01    0.5831515541202924E-02   -0.1700497410212264E-04    0.1870080756223155E+00   -0.5434997667730509E+01   -0.3123773672697478E-05    0.3052679428683369E-09   -0.1441564229098802E-10   -0.4307665335545607E-12    0.2953243459676014E-08
 -0.4962   0.0836    0.9291815803196437E-02    0.6841768315405747E-02   -0.1648970873270489E-04    0.1930240593138202E+00   -0.6368720080774792E+01   -0.3666428791003471E-05    0.1903321042440176E-09   -0.8100908832631148E-11   -0.4962558142196372E-12    0.3156223505641764E-08
 -0.4974   0.0510    0.7382999928974995E-02    0.7805382873486771E-02   -0.1519327424721879E-04    0.1996594970509371E+00   -0.7257471042949512E+01   -0.4184392505746165E-05    0.7857421657764263E-10   -0.5745404152435185E-14   -0.5168643291142416E-12    0.3269104672729006E-08
 -0.4986   0.0184    0.7148428148816113E-02    0.8669356013265980E-02   -0.1310123978153212E-04    0.2070935739122230E+00   -0.8052325432882917E+01   -0.4649174870120848E-05   -0.2246906480318778E-10    0.9491241126369232E-11   -0.5161704397238509E-12    0.3311737127587033E-08
 -0.4998  -0.0143    0.8642264416509478E-02    0.9381644546018081E-02   -0.1023271929824370E-04    0.2154174641568664E+00   -0.8705426652582439E+01   -0.5032779830193618E-05   -0.1059955352655795E-09    0.1977795704988239E-10   -0.4689582056016661E-12    0.3299465537592861E-08
 -0.5010  -0.0469    0.1176174792058945E-01    0.9894386245390477E-02   -0.6640023831981090E-05    0.2246850168603500E+00   -0.9172946806857567E+01   -0.5309416026785595E-05   -0.1666611570971810E-09    0.3008476801014126E-10   -0.3827181627169551E-12    0.3244561039977834E-08
 -0.5022  -0.0791    0.1623612489750350E-01    0.1016693493826235E-01   -0.2408434528300810E-05    0.2349294715249860E+00   -0.9417868297843476E+01   -0.5457147871170881E-05   -0.2014291398608203E-09    0.3959677030707098E-10   -0.2247525082710311E-12    0.3156136806764520E-08
 -0.5034  -0.1110    0.2163244120382789E-01    0.1016952055766081E-01    0.2316604723784040E-05    0.2461662652291845E+00   -0.9413320657333495E+01   -0.5459860604185423E-05   -0.2100332243196168E-09    0.4752420679210445E-10   -0.1029384910644637E-13    0.3040831496325946E-08
 -0.5045  -0.1422    0.2738305061323338E-01    0.9887820815323998E-02    0.7310725597057320E-05    0.2583912593372152E+00   -0.9146740395907376E+01   -0.5309731700813617E-05   -0.1950843150216874E-09    0.5312911222077332E-10    0.1852476505526113E-12    0.2903501859080615E-08
 -0.5056  -0.1728    0.3283883755350514E-01    0.9327806815105514E-02    0.1225635813091852E-04    0.2715781227841694E+00   -0.8624236838144789E+01   -0.5009858814741420E-05   -0.1620094267074101E-09    0.5589950724527171E-10    0.3952393967665557E-12    0.2748342222205769E-08
 -0.5067  -0.2026    0.3734701792525021E-01    0.8519208520683311E-02    0.1676526018395798E-04    0.2856764094093565E+00   -0.7873685565960727E+01   -0.4576131147722438E-05   -0.1182760001050553E-09    0.5554656734574337E-10    0.6388917173083541E-12    0.2577163336903165E-08
 -0.5078  -0.2315    0.4034285924423707E-01    0.7515538280935124E-02    0.2043242623453427E-04    0.3006109360638979E+00   -0.6944640918333740E+01   -0.4037281596012331E-05   -0.7230519655232470E-10    0.5213601772524612E-10    0.8376355165040650E-12    0.2393780144591129E-08
 -0.5088  -0.2592    0.4143511625066822E-01    0.6389177380891248E-02    0.2291862774648968E-04    0.3162823449251733E+00   -0.5903785747467717E+01   -0.3432221646604116E-05   -0.3185773866931640E-10    0.4613970316924565E-10    0.1008429451054838E-11    0.2199518732079464E-08
 -0.5098  -0.2858    0.4046131277459562E-01    0.5221720261710277E-02    0.2403149950700753E-04    0.3325679715224680E+00   -0.4826056800162826E+01   -0.2804882444437589E-05   -0.2694261480584714E-11    0.3831651662622448E-10    0.1132455240693275E-11    0.1997027576292054E-08
 -0.5107  -0.3111    0.3749635357203322E-01    0.4091779109180559E-02    0.2376947885776033E-04    0.3493215724421334E+00   -0.3783541341565199E+01   -0.2197583699542419E-05    0.1248703224154823E-10    0.2968436607631020E-10    0.1216859946140403E-11    0.1788018615112019E-08
 -0.5116  -0.3349    0.3281372731890405E-01    0.3063753841156055E-02    0.2231649334463876E-04    0.3663705796707987E+00   -0.2835230602283902E+01   -0.1645037502845695E-05    0.1407444993883900E-10    0.2120559283724788E-10    0.1264835458592017E-11    0.1575715150373136E-08
 -0.5124  -0.3573    0.2681548913414376E-01    0.2180724356404202E-02    0.1997588805877174E-04    0.3835107523813283E+00   -0.2020598673848898E+01   -0.1170425812935227E-05    0.4868112857270290E-11    0.1368392898992710E-10    0.1268277149968355E-11    0.1364191339753296E-08
 -0.5132  -0.3780    0.1995517265558958E-01    0.1462896157167992E-02    0.1709359565435855E-04    0.4005002817607228E+00   -0.1358157364122741E+01   -0.7846620505413405E-06   -0.1116320230698520E-10    0.7608053076424426E-11    0.1251845849203903E-11    0.1156404368096720E-08
 -0.5139  -0.3971    0.1267498173881184E-01    0.9108482293766289E-03    0.1396898998371793E-04    0.4170575886791831E+00   -0.8484663810033235E+00   -0.4880168688444134E-06   -0.2999610629328409E-10    0.3156962538608532E-11    0.1221245327087672E-11    0.9570033897288166E-09
 -0.5145  -0.4144    0.5367367408703740E-02    0.5114059394620906E-03    0.1082475503039393E-04    0.4328676276218488E+00   -0.4794169277319415E+00   -0.2734455104198443E-06   -0.4844686804506004E-10    0.2378045677042806E-12    0.1203009913908204E-11    0.7696602140339071E-09
 -0.5151  -0.4298   -0.1639541561703354E-02    0.2436615920938966E-03    0.7782041174089048E-05    0.4475992540698928E+00   -0.2317838370803876E+00   -0.1296430883468112E-06   -0.6441061399520276E-10   -0.1406947475190989E-11    0.1155020523668782E-11    0.5969975364755742E-09
 -0.5156  -0.4433   -0.8081133328750573E-02    0.8333004699511116E-04    0.4927630698777379E-05    0.4609315381857547E+00   -0.8308799286631874E-01   -0.4364210709078341E-07   -0.7700836149315826E-10   -0.2111495006618114E-11    0.1126383708527356E-11    0.4430201162516911E-09
 -0.5160  -0.4548   -0.1374960914367506E-01    0.4792330690476236E-05    0.2346176377594192E-05    0.4725821029926211E+00   -0.9592502352505295E-02   -0.1600689669365752E-08   -0.8613931876816361E-10   -0.2219040923234772E-11    0.1117397840921797E-11    0.3096338446056945E-09
 -0.5164  -0.4643   -0.1849052404697684E-01   -0.1856510971779760E-04    0.2759035828001610E-06    0.4823285349340107E+00    0.1348257058229603E-01    0.1062532275363472E-07   -0.9258869333120950E-10   -0.2032173040955598E-11    0.1102789951371030E-11    0.1993065560680629E-09
 -0.5166  -0.4717   -0.2220490954632226E-01   -0.1358855437735687E-04   -0.9695001279498608E-06    0.4900162235120086E+00    0.1080756224707162E-01    0.7658751402979813E-08   -0.9730179270812933E-10   -0.1771242874593071E-11    0.1083688260655746E-11    0.1123917508540073E-09
 -0.5168  -0.4770   -0.2485360685768202E-01   -0.3647100948219544E-05   -0.1011180999162761E-05    0.4955516961812180E+00    0.3487703483907540E-02    0.1913866776492208E-08   -0.1022413111204795E-09   -0.1513692166402181E-11    0.1150424807500050E-11    0.4990137383170667E-10
 -0.5170  -0.4802   -0.2644308249321577E-01   -0.8049415699161372E-07   -0.8079524488469935E-07    0.4988865501568286E+00    0.4718931691218210E-03    0.7159276815750894E-10   -0.1074535223711919E-09   -0.7964902608986746E-12    0.7930424979901707E-12    0.1237746138763908E-10
 -0.5170  -0.4813   -0.2697562357438440E-01    0.0000000000000000E+00    0.0000000000000000E+00    0.5000000000000000E+00   -0.1495588474097255E-03    0.0000000000000000E+00    0.0000000000000000E+00    0.0000000000000000E+00    0.0000000000000000E+00    0.0000000000000000E+00
 -0.4770   0.5179    0.2348866458550961E-01    0.0000000000000000E+00    0.0000000000000000E+00   -0.5000000000000000E+00   -0.4547394831336908E-02    0.0000000000000000E+00    0.0000000000000000E+00    0.0000000000000000E+00    0.0000000000000000E+00    0.0000000000000000E+00
 -0.4770   0.5168    0.2402017570356941E-01    0.5246522022594671E-06   -0.3383223043750307E-05   -0.4962586930682248E+00   -0.1741975905349374E-02   -0.2024280132116713E-08    0.7128953622087889E-09    0.3746091978285016E-12    0.4380679846649471E-12   -0.8001027195381899E-11
 -0.4771   0.5136    0.2560116044499048E-01    0.1066791827101095E-05   -0.1065666903665054E-05   -0.4850522706954352E+00    0.5273681421962290E-02   -0.1297178088763373E-07    0.7135704108759272E-09    0.1135029570331625E-11    0.1040444640165727E-11   -0.3135785012729764E-10
 -0.4773   0.5083    0.2817924743361904E-01   -0.2635400879935822E-04    0.1953207316067100E-04   -0.4664417329351388E+00    0.1718238909918383E-01    0.3232773681414671E-07    0.7150904590691454E-09    0.1587402952141215E-11    0.1356506053318274E-11   -0.7021108867910630E-10
 -0.4776   0.5009    0.3162470743969454E-01   -0.1481260317662384E-03    0.4970014851220710E-04   -0.4405543266699340E+00    0.4462150127657644E-01    0.2937204361327605E-06    0.7174312324775833E-09    0.1181440362207908E-11    0.1644438057946118E-11   -0.1248374311910161E-09
 -0.4780   0.4914    0.3570326338374195E-01   -0.4216090385728322E-03    0.7515845549817832E-04   -0.4076111522585039E+00    0.1005857142690246E+00    0.8992464116190935E-06    0.7206362520606469E-09   -0.5597917962507637E-12    0.1916310859995107E-11   -0.1955223673938411E-09
 -0.4784   0.4799    0.4009618529939697E-01   -0.8495146635731640E-03    0.8683999727253249E-04   -0.3679495796766010E+00    0.1877162673323506E+00    0.1850470091989721E-05    0.7246064026578125E-09   -0.4045253715334596E-11    0.2169729673706655E-11   -0.2828258616888180E-09
 -0.4789   0.4664    0.4444287436020174E-01   -0.1369071792284312E-02    0.8140732255746815E-04   -0.3220436788558486E+00    0.2941017617935219E+00    0.3005076929230788E-05    0.7290609990717734E-09   -0.9409237278212856E-11    0.2342674665367639E-11   -0.3861530192827978E-09
 -0.4794   0.4510    0.4838289860314570E-01   -0.1864925179438223E-02    0.5961432943938240E-04   -0.2705451473024758E+00    0.3954818462536200E+00    0.4108343625240457E-05    0.7337611386548648E-09   -0.1649666514502712E-10    0.2437100868335484E-11   -0.5042945123989728E-09