 title="result"
 variables="x","y","P","u","v","t","omega","psi","RES1","RES2","RES3","RES4"
zone,j= 49,i= 49,f=point
 -0.3851   0.5930    0.2518803987697672E-01    0.0000000000000000E+00    0.0000000000000000E+00   -0.5000000000000000E+00    0.0000000000000000E+00    0.0000000000000000E+00    0.0000000000000000E+00    0.0000000000000000E+00    0.0000000000000000E+00    0.0000000000000000E+00
 -0.3853   0.5920    0.2570785182836106E-01    0.0000000000000000E+00    0.0000000000000000E+00   -0.4957168620353455E+00   -0.6215208372017071E-04    0.0000000000000000E+00    0.0000000000000000E+00    0.0000000000000000E+00    0.0000000000000000E+00    0.0000000000000000E+00
 -0.3860   0.5888    0.2724117994505859E-01    0.0000000000000000E+00    0.0000000000000000E+00   -0.4828878122651198E+00   -0.4223422882032097E-02    0.0000000000000000E+00    0.0000000000000000E+00    0.0000000000000000E+00    0.0000000000000000E+00    0.0000000000000000E+00
 -0.3871   0.5836    0.2972846512058753E-01    0.0000000000000000E+00    0.0000000000000000E+00   -0.4615860039973191E+00   -0.1604573504743823E-01    0.0000000000000000E+00    0.0000000000000000E+00    0.0000000000000000E+00    0.0000000000000000E+00    0.0000000000000000E+00
 -0.3887   0.5764    0.3305965001223966E-01    0.0000000000000000E+00    0.0000000000000000E+00   -0.4319732829097798E+00   -0.2991151392880805E-01    0.0000000000000000E+00    0.0000000000000000E+00    0.0000000000000000E+00    0.0000000000000000E+00    0.0000000000000000E+00
 -0.3906   0.5671    0.3703893802604541E-01    0.0000000000000000E+00    0.0000000000000000E+00   -0.3943578166112472E+00   -0.3707933056180761E-01    0.0000000000000000E+00    0.0000000000000000E+00    0.0000000000000000E+00    0.0000000000000000E+00    0.0000000000000000E+00
 -0.3930   0.5558    0.4139306042622285E-01    0.0000000000000000E+00    0.0000000000000000E+00   -0.3492683959696586E+00   -0.3219851019118216E-01    0.0000000000000000E+00    0.0000000000000000E+00    0.0000000000000000E+00    0.0000000000000000E+00    0.0000000000000000E+00
 -0.3958   0.5426    0.4579043443319539E-01    0.0000000000000000E+00    0.0000000000000000E+00   -0.2975392136403910E+00   -0.1555636196716927E-01    0.0000000000000000E+00    0.0000000000000000E+00    0.0000000000000000E+00    0.0000000000000000E+00    0.0000000000000000E+00
 -0.3990   0.5275    0.4986595357336351E-01    0.0000000000000000E+00    0.0000000000000000E+00   -0.2403975819950963E+00    0.6237550156442064E-02    0.0000000000000000E+00    0.0000000000000000E+00    0.0000000000000000E+00    0.0000000000000000E+00    0.0000000000000000E+00
 -0.4026   0.5106    0.5325143862677164E-01    0.0000000000000000E+00    0.0000000000000000E+00   -0.1795395921800832E+00    0.2038793586206514E-01    0.0000000000000000E+00    0.0000000000000000E+00    0.0000000000000000E+00    0.0000000000000000E+00    0.0000000000000000E+00
 -0.4066   0.4920    0.5561291420314567E-01    0.0000000000000000E+00    0.0000000000000000E+00   -0.1171632696390008E+00    0.8630590076629144E-02    0.0000000000000000E+00    0.0000000000000000E+00    0.0000000000000000E+00    0.0000000000000000E+00    0.0000000000000000E+00
 -0.4109   0.4717    0.5669145803310768E-01    0.0000000000000000E+00    0.0000000000000000E+00   -0.5591095137522338E-01   -0.5046669694204189E-01    0.0000000000000000E+00    0.0000000000000000E+00    0.0000000000000000E+00    0.0000000000000000E+00    0.0000000000000000E+00
 -0.4156   0.4498    0.5633777699654936E-01    0.0000000000000000E+00    0.0000000000000000E+00    0.1335223739793850E-02   -0.1774759741824557E+00    0.0000000000000000E+00    0.0000000000000000E+00    0.0000000000000000E+00    0.0000000000000000E+00    0.0000000000000000E+00
 -0.4205   0.4264    0.5452883559278025E-01    0.0000000000000000E+00    0.0000000000000000E+00    0.5183845669016894E-01   -0.3879896679466072E+00    0.0000000000000000E+00    0.0000000000000000E+00    0.0000000000000000E+00    0.0000000000000000E+00    0.0000000000000000E+00
 -0.4258   0.4017    0.5136194981541799E-01    0.0000000000000000E+00    0.0000000000000000E+00    0.9353144569906092E-01   -0.6911413217045318E+00    0.0000000000000000E+00    0.0000000000000000E+00    0.0000000000000000E+00    0.0000000000000000E+00    0.0000000000000000E+00
 -0.4313   0.3757    0.4703221721337823E-01    0.0000000000000000E+00    0.0000000000000000E+00    0.1255172481707111E+00   -0.1091626205501950E+01    0.0000000000000000E+00    0.0000000000000000E+00    0.0000000000000000E+00    0.0000000000000000E+00    0.0000000000000000E+00
 -0.4371   0.3485    0.4180411270708156E-01    0.0000000000000000E+00    0.0000000000000000E+00    0.1483003100044913E+00   -0.1592901674943378E+01    0.0000000000000000E+00    0.0000000000000000E+00    0.0000000000000000E+00    0.0000000000000000E+00    0.0000000000000000E+00
 -0.4431   0.3203    0.3598587671264392E-01    0.0000000000000000E+00    0.0000000000000000E+00    0.1635735756197259E+00   -0.2198192470925760E+01    0.0000000000000000E+00    0.0000000000000000E+00    0.0000000000000000E+00    0.0000000000000000E+00    0.0000000000000000E+00
 -0.4493   0.2911    0.2991158771263322E-01    0.0000000000000000E+00    0.0000000000000000E+00    0.1736280449532881E+00   -0.2908159772268171E+01    0.0000000000000000E+00    0.0000000000000000E+00    0.0000000000000000E+00    0.0000000000000000E+00    0.0000000000000000E+00
 -0.4557   0.2612    0.2393191947320657E-01    0.0000000000000000E+00    0.0000000000000000E+00    0.1806809639445395E+00   -0.3716817566806643E+01    0.0000000000000000E+00    0.0000000000000000E+00    0.0000000000000000E+00    0.0000000000000000E+00    0.0000000000000000E+00
 -0.4622   0.2305    0.1840913039948162E-01    0.0000000000000000E+00    0.0000000000000000E+00    0.1864322850554766E+00   -0.4608169139427846E+01    0.0000000000000000E+00    0.0000000000000000E+00    0.0000000000000000E+00    0.0000000000000000E+00    0.0000000000000000E+00
 -0.4688   0.1994    0.1370778998949160E-01    0.0000000000000000E+00    0.0000000000000000E+00    0.1919594582500866E+00   -0.5555165226527424E+01    0.0000000000000000E+00    0.0000000000000000E+00    0.0000000000000000E+00    0.0000000000000000E+00    0.0000000000000000E+00
 -0.4755   0.1678    0.1017504768064001E-01    0.0000000000000000E+00    0.0000000000000000E+00    0.1978473743813029E+00   -0.6521193944005027E+01    0.0000000000000000E+00    0.0000000000000000E+00    0.0000000000000000E+00    0.0000000000000000E+00    0.0000000000000000E+00
 -0.4823   0.1359    0.8111001214287070E-02    0.0000000000000000E+00    0.0000000000000000E+00    0.2043830738178445E+00   -0.7463183700040482E+01    0.0000000000000000E+00    0.0000000000000000E+00    0.0000000000000000E+00    0.0000000000000000E+00    0.0000000000000000E+00
 -0.4891   0.1040    0.7735018193835130E-02    0.0000000000000000E+00    0.0000000000000000E+00    0.2117068108692371E+00   -0.8335009938283108E+01    0.0000000000000000E+00    0.0000000000000000E+00    0.0000000000000000E+00    0.0000000000000000E+00    0.0000000000000000E+00
 -0.4959   0.0720    0.9154327357696071E-02    0.0000000000000000E+00    0.0000000000000000E+00    0.2198956978854046E+00   -0.9090247341259364E+01    0.0000000000000000E+00    0.0000000000000000E+00    0.0000000000000000E+00    0.0000000000000000E+00    0.0000000000000000E+00
 -0.5026   0.0401    0.1233872873724470E-01    0.0000000000000000E+00    0.0000000000000000E+00    0.2289991701351899E+00   -0.9684112865560316E+01    0.0000000000000000E+00    0.0000000000000000E+00    0.0000000000000000E+00    0.0000000000000000E+00    0.0000000000000000E+00
 -0.5094   0.0085    0.1710325917058695E-01    0.0000000000000000E+00    0.0000000000000000E+00    0.2390499478305279E+00   -0.1007519583146778E+02    0.0000000000000000E+00    0.0000000000000000E+00    0.0000000000000000E+00    0.0000000000000000E+00    0.0000000000000000E+00
 -0.5160  -0.0226    0.2310132929894843E-01    0.0000000000000000E+00    0.0000000000000000E+00    0.2500650165948117E+00   -0.1022792642637092E+02    0.0000000000000000E+00    0.0000000000000000E+00    0.0000000000000000E+00    0.0000000000000000E+00    0.0000000000000000E+00
 -0.5225  -0.0533    0.2983345252855507E-01    0.0000000000000000E+00    0.0000000000000000E+00    0.2620432129788677E+00   -0.1011649679924966E+02    0.0000000000000000E+00    0.0000000000000000E+00    0.0000000000000000E+00    0.0000000000000000E+00    0.0000000000000000E+00
 -0.5289  -0.0832    0.3667878468776814E-01    0.0000000000000000E+00    0.0000000000000000E+00    0.2749621015150671E+00   -0.9730176817348871E+01    0.0000000000000000E+00    0.0000000000000000E+00    0.0000000000000000E+00    0.0000000000000000E+00    0.0000000000000000E+00
 -0.5351  -0.1124    0.4295482615942213E-01    0.0000000000000000E+00    0.0000000000000000E+00    0.2887754030681962E+00   -0.9078863884781486E+01    0.0000000000000000E+00    0.0000000000000000E+00    0.0000000000000000E+00    0.0000000000000000E+00    0.0000000000000000E+00
 -0.5411  -0.1406    0.4800306769253285E-01    0.0000000000000000E+00    0.0000000000000000E+00    0.3034116748229367E+00   -0.8196740744897276E+01    0.0000000000000000E+00    0.0000000000000000E+00    0.0000000000000000E+00    0.0000000000000000E+00    0.0000000000000000E+00
 -0.5468  -0.1678    0.5128635759084687E-01    0.0000000000000000E+00    0.0000000000000000E+00    0.3187744349335701E+00   -0.7141694286435565E+01    0.0000000000000000E+00    0.0000000000000000E+00    0.0000000000000000E+00    0.0000000000000000E+00    0.0000000000000000E+00
 -0.5524  -0.1938    0.5247339160333713E-01    0.0000000000000000E+00    0.0000000000000000E+00    0.3347432323226252E+00   -0.5989161219709166E+01    0.0000000000000000E+00    0.0000000000000000E+00    0.0000000000000000E+00    0.0000000000000000E+00    0.0000000000000000E+00
 -0.5576  -0.2185    0.5148435123474071E-01    0.0000000000000000E+00    0.0000000000000000E+00    0.3511744343753028E+00   -0.4821168271164544E+01    0.0000000000000000E+00    0.0000000000000000E+00    0.0000000000000000E+00    0.0000000000000000E+00    0.0000000000000000E+00
 -0.5626  -0.2419    0.4848329311644707E-01    0.0000000000000000E+00    0.0000000000000000E+00    0.3679001836293022E+00   -0.3713521144296596E+01    0.0000000000000000E+00    0.0000000000000000E+00    0.0000000000000000E+00    0.0000000000000000E+00    0.0000000000000000E+00
 -0.5672  -0.2637    0.4382246606112535E-01    0.0000000000000000E+00    0.0000000000000000E+00    0.3847246000021830E+00   -0.2725070473509420E+01    0.0000000000000000E+00    0.0000000000000000E+00    0.0000000000000000E+00    0.0000000000000000E+00    0.0000000000000000E+00
 -0.5715  -0.2841    0.3796069621439430E-01    0.0000000000000000E+00    0.0000000000000000E+00    0.4014181262133107E+00   -0.1892040879990750E+01    0.0000000000000000E+00    0.0000000000000000E+00    0.0000000000000000E+00    0.0000000000000000E+00    0.0000000000000000E+00
 -0.5755  -0.3027    0.3138308426895921E-01    0.0000000000000000E+00    0.0000000000000000E+00    0.4177133980271497E+00   -0.1228201981478653E+01    0.0000000000000000E+00    0.0000000000000000E+00    0.0000000000000000E+00    0.0000000000000000E+00    0.0000000000000000E+00
 -0.5791  -0.3196    0.2454203265683034E-01    0.0000000000000000E+00    0.0000000000000000E+00    0.4333076968459058E+00   -0.7293870202713832E+00    0.0000000000000000E+00    0.0000000000000000E+00    0.0000000000000000E+00    0.0000000000000000E+00    0.0000000000000000E+00
 -0.5823  -0.3347    0.1782641336912396E-01    0.0000000000000000E+00    0.0000000000000000E+00    0.4478761602406124E+00   -0.3797566208811347E+00    0.0000000000000000E+00    0.0000000000000000E+00    0.0000000000000000E+00    0.0000000000000000E+00    0.0000000000000000E+00
 -0.5851  -0.3479    0.1155407858426788E-01    0.0000000000000000E+00    0.0000000000000000E+00    0.4610958649351284E+00   -0.1571865370767773E+00    0.0000000000000000E+00    0.0000000000000000E+00    0.0000000000000000E+00    0.0000000000000000E+00    0.0000000000000000E+00
 -0.5875  -0.3592    0.5976719774733194E-02    0.0000000000000000E+00    0.0000000000000000E+00    0.4726752437242071E+00   -0.3634516366705091E-01    0.0000000000000000E+00    0.0000000000000000E+00    0.0000000000000000E+00    0.0000000000000000E+00    0.0000000000000000E+00
 -0.5895  -0.3685    0.1284983747669385E-02    0.0000000000000000E+00    0.0000000000000000E+00    0.4823793542909562E+00    0.1073959253150835E-01    0.0000000000000000E+00    0.0000000000000000E+00    0.0000000000000000E+00    0.0000000000000000E+00    0.0000000000000000E+00
 -0.5910  -0.3757   -0.2393640152555318E-02    0.0000000000000000E+00    0.0000000000000000E+00    0.4900421900690823E+00    0.1435041402815994E-01    0.0000000000000000E+00    0.0000000000000000E+00    0.0000000000000000E+00    0.0000000000000000E+00    0.0000000000000000E+00
 -0.5921  -0.3809   -0.5003131266143565E-02    0.0000000000000000E+00    0.0000000000000000E+00    0.4955627838736844E+00    0.4371327950599211E-02    0.0000000000000000E+00    0.0000000000000000E+00    0.0000000000000000E+00    0.0000000000000000E+00    0.0000000000000000E+00
 -0.5928  -0.3841   -0.6558818467245603E-02    0.0000000000000000E+00    0.0000000000000000E+00    0.4988892970164048E+00   -0.1065520929980288E-03    0.0000000000000000E+00    0.0000000000000000E+00    0.0000000000000000E+00    0.0000000000000000E+00    0.0000000000000000E+00
 -0.5930  -0.3851   -0.7079263035219038E-02    0.0000000000000000E+00    0.0000000000000000E+00    0.5000000000000000E+00    0.0000000000000000E+00    0.0000000000000000E+00    0.0000000000000000E+00    0.0000000000000000E+00    0.0000000000000000E+00    0.0000000000000000E+00
 -0.3841   0.5928    0.2530084243889284E-01    0.0000000000000000E+00    0.0000000000000000E+00   -0.5000000000000000E+00   -0.6232094084075619E-04    0.0000000000000000E+00    0.0000000000000000E+00    0.0000000000000000E+00    0.0000000000000000E+00    0.0000000000000000E+00
 -0.3843   0.5918    0.2582017911987059E-01    0.2020107869512638E-06   -0.2021038625843890E-06   -0.4957167606920794E+00   -0.5479789811884620E-03   -0.1363824269850097E-09    0.9908241203416060E-09    0.2942634742646166E-12    0.3150069181195869E-12   -0.8822243391555518E-11
 -0.3850   0.5886    0.2735304105652005E-01    0.4230430681914669E-05   -0.1055328823276528E-05   -0.4828874057119274E+00   -0.3828203794208525E-02   -0.2281044803332308E-08    0.9929999867080291E-09    0.6021006176276655E-12    0.4154805839651221E-12   -0.3545669704022036E-10
 -0.3861   0.5834    0.2983697090367587E-01    0.1550817821397953E-04   -0.1209998617534545E-05   -0.4615850843561136E+00   -0.1294509436347497E-01   -0.8624962830345112E-08    0.9956312211310825E-09    0.5979374981257557E-12    0.4243862206099180E-12   -0.7954722297531802E-10
 -0.3876   0.5761    0.3315952000108378E-01    0.2917559404403456E-04   -0.7616008743099554E-06   -0.4319716434783817E+00   -0.2464058877141373E-01   -0.1609483008875169E-07    0.9986455557896984E-09    0.2508878521600977E-12    0.4733193004202718E-12   -0.1416549134936052E-09
 -0.3896   0.5669    0.3712718325244422E-01    0.3651581272703292E-04   -0.9285821032749156E-07   -0.3943552602586083E+00   -0.3116990488796441E-01   -0.2011710944124304E-07    0.1002049574040783E-08   -0.6132924029733644E-12    0.4777649087982228E-12   -0.2201706490734257E-09
 -0.3920   0.5556    0.4146844075900818E-01    0.3186203199871339E-04    0.4902671974319937E-06   -0.3492647369926572E+00   -0.2737641325654086E-01   -0.1750145533621153E-07    0.1005217019865723E-08   -0.2009050911744303E-11    0.5092714444598911E-12   -0.3142051133164792E-09
 -0.3948   0.5424    0.4585289198768092E-01    0.1543281455665323E-04    0.7819801617115543E-06   -0.2975342802238567E+00   -0.1332578048495733E-01   -0.8480568261528905E-08    0.1007682575186394E-08   -0.3830239077295960E-11    0.4895389649206550E-12   -0.4204920509010002E-09
 -0.3980   0.5273    0.4991624956831869E-01   -0.5879874696352220E-05    0.6723182237908425E-06   -0.2403912326897248E+00    0.4684268722650856E-02    0.3300273343419670E-08    0.1009109919106535E-08   -0.5872132641249195E-11    0.4940887109172731E-12   -0.5321310198036500E-09
 -0.4016   0.5104    0.5329104923969990E-01   -0.1861257496688952E-04    0.9574462211595868E-07   -0.1795317556313257E+00    0.1432067103836189E-01    0.1053343238903452E-07    0.1009530963490789E-08   -0.7909261787175659E-11    0.4720896017043705E-12   -0.6366219773568105E-09
 -0.4056   0.4917    0.5564384800820293E-01   -0.3510161312152721E-05   -0.9578666510569676E-06   -0.1171540069599380E+00   -0.2141977269929706E-02    0.2906166054092843E-08    0.1009014883798787E-08   -0.9770732833924711E-11    0.4676068560138802E-12   -0.7150385561427441E-09
 -0.4099   0.4714    0.5671599954554980E-01    0.6205472782964815E-04   -0.2423053298505274E-05   -0.5590052897686265E-01   -0.6553002623272464E-01   -0.3178708409856853E-07    0.1007416927656379E-08   -0.1135161409315799E-10    0.4161809785685477E-12   -0.7411033314808080E-09
 -0.4145   0.4496    0.5635811834867263E-01    0.1998491597610360E-03   -0.4152093747421984E-05    0.1346279294709404E-02   -0.1959473285657652E+00   -0.1052129697988652E-06    0.1003869664478740E-08   -0.1262454724093587E-10    0.3679834215120081E-12   -0.6824082410261667E-09
 -0.4195   0.4262    0.5454692845612949E-01    0.4264444996480917E-03   -0.5971016310081974E-05    0.5184937051608277E-01   -0.4087533418577692E+00   -0.2262877771780852E-06    0.9964311441928997E-09   -0.1360481172163475E-10    0.3296252160112090E-12   -0.5066879832371640E-09
 -0.4247   0.4015    0.5137959173349701E-01    0.7516156032542967E-03   -0.7756792909647117E-05    0.9354132264262997E-01   -0.7130845240418119E+00   -0.4002246388418071E-06    0.9819348840978126E-09   -0.1430508489441706E-10    0.2475589178096982E-12   -0.1923905618150812E-09
 -0.4303   0.3754    0.4705126135225537E-01    0.1180398907279169E-02   -0.9479703435906739E-05    0.1255253118678887E+00   -0.1113651529343367E+01   -0.6297337354684765E-06    0.9564520286886591E-09   -0.1469826343969416E-10    0.2108035968007016E-12    0.2586181546693211E-09
 -0.4360   0.3483    0.4182641343456669E-01    0.1716401913105536E-02   -0.1116473593198491E-04    0.1483061502412006E+00   -0.1613741166788469E+01   -0.9167500389594743E-06    0.9161771515053818E-09   -0.1472087729492699E-10    0.1328381848964000E-12    0.8133362455753357E-09
 -0.4420   0.3200    0.3601295086504375E-01    0.2362836551272030E-02   -0.1281961092584539E-04    0.1635772545105261E+00   -0.2216125883722776E+01   -0.1263045469540151E-05    0.8584675817435716E-09   -0.1426824630668122E-10    0.2473715676742927E-13    0.1413623055418478E-08
 -0.4482   0.2909    0.2994412785343695E-01    0.3120063574661792E-02   -0.1438221991024323E-04    0.1736299935872579E+00   -0.2920819620651660E+01   -0.1668867375704633E-05    0.7826188863635508E-09   -0.1320368120394377E-10   -0.9292566716112560E-13    0.1991562491310273E-08
 -0.4546   0.2609    0.2396948690700023E-01    0.3981308862615329E-02   -0.1572272897733383E-04    0.1806817496776620E+00   -0.3721150582308663E+01   -0.2130660364690410E-05    0.6901767386768842E-09   -0.1130387970726954E-10   -0.2063904602778166E-12    0.2492062504272363E-08
 -0.4611   0.2303    0.1845009369582218E-01    0.4929160498245241E-02   -0.1667704282911168E-04    0.1864324015550756E+00   -0.4600586633267549E+01   -0.2639152151618828E-05    0.5846287447208720E-09   -0.8347364466310125E-11   -0.3082256672115591E-12    0.2883890443263577E-08
 -0.4677   0.1991    0.1374953217258436E-01    0.5934536447165021E-02   -0.1709284903844422E-04    0.1919592320636375E+00   -0.5531845400166363E+01   -0.3178799979397817E-05    0.4709189566076688E-09   -0.4073796855408318E-11   -0.3909234047583254E-12    0.3161313493101059E-08
 -0.4745   0.1676    0.1021426810470434E-01    0.6958328238557528E-02   -0.1685827953311089E-04    0.1978469772452084E+00   -0.6478475713768106E+01   -0.3728655138189143E-05    0.3552299149278682E-09    0.1648362002448778E-11   -0.4723998969780041E-12    0.3335215102793360E-08
 -0.4812   0.1357    0.8144041698292540E-02    0.7954731788150758E-02   -0.1591223745826690E-04    0.2043825782013147E+00   -0.7397978511909811E+01   -0.4264143911147800E-05    0.2443271938934455E-09    0.8758438418965397E-11   -0.5388189894262041E-12    0.3423202188726493E-08
 -0.4880   0.1037    0.7758074335327632E-02    0.8874873848272445E-02   -0.1423150842510540E-04    0.2117062400915841E+00   -0.8245171400051227E+01   -0.4759019248336578E-05    0.1449751950433065E-09    0.1693592488472007E-10   -0.5651173973220125E-12    0.3443198118985302E-08
 -0.4948   0.0717    0.9163581215695880E-02    0.9669727743331117E-02   -0.1181519453363347E-04    0.2198950557288759E+00   -0.8974889220880428E+01   -0.5186913568564179E-05    0.6327927765115149E-10    0.2562872136735450E-10   -0.5164341176921994E-12    0.3410758197576469E-08
 -0.5016   0.0399    0.1233039161451818E-01    0.1029216694461523E-01   -0.8671563256383733E-05    0.2289984544080010E+00   -0.9543869975694967E+01   -0.5522462604411617E-05    0.3958933875169990E-11    0.3418004768107608E-10   -0.4490088856279328E-12    0.3337524496355160E-08
 -0.5083   0.0083    0.1707366661061951E-01    0.1069879320952883E-01   -0.4825533073855769E-05    0.2390491557018463E+00   -0.9912450063840550E+01   -0.5742261758020480E-05   -0.3049386611275740E-10    0.4178291046486038E-10   -0.3364357403778939E-12    0.3232761048438393E-08
 -0.5149  -0.0228    0.2304712063701836E-01    0.1085253902802226E-01   -0.3395245471413935E-06    0.2500641466114919E+00   -0.1004694582696409E+02   -0.5826299743885731E-05   -0.4029501797335466E-10    0.4766043115722596E-10   -0.1769849457960992E-12    0.3102929661477627E-08
 -0.5214  -0.0535    0.2975195096044006E-01    0.1072678193167050E-01    0.4649618277565796E-05    0.2620422657832873E+00   -0.9923433392039950E+01   -0.5760134984119521E-05   -0.2855906310050838E-10    0.5114014767215735E-10    0.2101790963493499E-13    0.2953390774995679E-08
 -0.5278  -0.0834    0.3656849837703380E-01    0.1031089200797095E-01    0.9902067836919690E-05    0.2749610798025100E+00   -0.9532779795793935E+01   -0.5537939243123057E-05   -0.1147949790780700E-11    0.5175432304937999E-10    0.2522149156192199E-12    0.2787912262158798E-08
 -0.5340  -0.1126    0.4281602505632950E-01    0.9615981846975975E-02    0.1506361751870389E-04    0.2887743108199617E+00   -0.8885855042143287E+01   -0.5165552116482815E-05    0.3416223207097779E-10    0.4935096775682268E-10    0.4607564330072478E-12    0.2609035206629917E-08
 -0.5400  -0.1408    0.4783817261804095E-01    0.8678636888015798E-02    0.1969935444027592E-04    0.3034105158764093E+00   -0.8016819914138061E+01   -0.4662577797927786E-05    0.6893202675328780E-10    0.4414235643679376E-10    0.6451783551852941E-12    0.2420020312615678E-08
 -0.5458  -0.1680    0.5110000496017329E-01    0.7560194539712207E-02    0.2336413054141918E-04    0.3187732112604350E+00   -0.6982386955146294E+01   -0.4061938763717554E-05    0.9566031300423106E-10    0.3675432180827443E-10    0.8323203237736720E-12    0.2222283038144646E-08
 -0.5513  -0.1940    0.5227197011748737E-01    0.6340217295329508E-02    0.2570517158720861E-04    0.3347419428299119E+00   -0.5855749733835776E+01   -0.3406461571745016E-05    0.1093316340239348E-09    0.2811234578459221E-10    0.9562767244730708E-12    0.2017802029630200E-08
 -0.5566  -0.2187    0.5127515246594069E-01    0.5104990157913024E-02    0.2654603130954516E-04    0.3511730753706065E+00   -0.4716089749729052E+01   -0.2742573777190455E-05    0.1083057116213482E-09    0.1931549364897478E-10    0.1042027575337556E-11    0.1809366177718541E-08
 -0.5615  -0.2421    0.4827342218333222E-01    0.3934136448215493E-02    0.2593020070908328E-04    0.3678987519978157E+00   -0.3636340772503140E+01   -0.2113203133206500E-05    0.9421926433494932E-10    0.1133157456756351E-10    0.1069352939531143E-11    0.1598078093467681E-08
 -0.5662  -0.2640    0.4361794208846874E-01    0.2889429762984761E-02    0.2408859951184449E-04    0.3847230993401740E+00   -0.2673071784565056E+01   -0.1551592299932560E-05    0.7104607180341560E-10    0.4876848924695310E-11    0.1077207767430366E-11    0.1387824750953559E-08
 -0.5705  -0.2843    0.3776588667831199E-01    0.2008899007512419E-02    0.2136573041506139E-04    0.4014165746546076E+00   -0.1861085868984137E+01   -0.1078279838156010E-05    0.4356792704385271E-10    0.2826350264939492E-12    0.1074210165263878E-11    0.1181271610042889E-08
 -0.5745  -0.3029    0.3120068882036874E-01    0.1307014764775967E-02    0.1811430332644178E-04    0.4177118347763332E+00   -0.1213669173410538E+01   -0.7010010231257464E-06    0.1628063656111678E-10   -0.2488564909697288E-11    0.1027039564505117E-11    0.9815803621304742E-09
 -0.5781  -0.3198    0.2437337378554976E-01    0.7794060915342741E-03    0.1462600596678797E-04    0.4333061835086945E+00   -0.7267968935688565E+00   -0.4174711032081892E-06   -0.7685335007279193E-11   -0.3727834013700360E-11    0.9933859290711666E-12    0.7926288375648127E-09
 -0.5813  -0.3349    0.1767197660815831E-01    0.4093743699465507E-03    0.1108607216652992E-04    0.4478747739339998E+00   -0.3851471659462011E+00   -0.2186196530237077E-06   -0.2660942299836933E-10   -0.3876053991658246E-11    0.9650127918980900E-12    0.6180095289687326E-09
 -0.5841  -0.3481    0.1141383013953395E-01    0.1735007480772339E-03    0.7611501924245112E-05    0.4610946830864771E+00   -0.1670493512986430E+00   -0.9197149982049651E-07   -0.4021138630405652E-10   -0.3382717717048678E-11    0.9431136427373588E-12    0.4600782047003982E-09
 -0.5865  -0.3594    0.5850133726284693E-02    0.4482286333600019E-04    0.4309626754877062E-05    0.4726743244359372E+00   -0.4752291237641162E-01   -0.2293007959240550E-07   -0.4908394177216557E-10   -0.2660829889755689E-11    0.9285176794104899E-12    0.3227084892712395E-09
 -0.5884  -0.3687    0.1170359060253656E-02   -0.6477745963075679E-05    0.1441912592386510E-05    0.4823787193023560E+00    0.1266833674562137E-02    0.4311507308176222E-08   -0.5464012879305424E-10   -0.2000490051390358E-11    0.9452673019327840E-12    0.2079086685799481E-09
 -0.5900  -0.3759   -0.2500365662496412E-02   -0.1257695990828707E-04   -0.5574081484550308E-06    0.4900418177173780E+00    0.9005126629708791E-02    0.7276483088913819E-08   -0.5837308089153004E-10   -0.1564259138886470E-11    0.9278276931479201E-12    0.1175220194597759E-09
 -0.5911  -0.3812   -0.5109436987582294E-02   -0.4292246750979515E-05   -0.1102981278969473E-05    0.4955626157757646E+00    0.3738139726263268E-02    0.2306035491348953E-08   -0.6243823860718756E-10   -0.1300265450865368E-11    0.9867176520295118E-12    0.5236683417626786E-10
 -0.5918  -0.3843   -0.6667440787203404E-02   -0.1393977988619113E-06   -0.1396209526365950E-06    0.4988892548551188E+00    0.5854237890608716E-03    0.1197871752631292E-09   -0.6693479397048424E-10   -0.6921099977852396E-12    0.6946921336792311E-12    0.1278002860873387E-10
 -0.5920  -0.3853   -0.7188009558197778E-02    0.0000000000000000E+00    0.0000000000000000E+00    0.5000000000000000E+00   -0.1060185104506086E-03    0.0000000000000000E+00    0.0000000000000000E+00    0.0000000000000000E+00    0.0000000000000000E+00    0.0000000000000000E+00
 -0.3809   0.5921    0.2563581648949078E-01    0.0000000000000000E+00    0.0000000000000000E+00   -0.5000000000000000E+00   -0.4222953264297565E-02    0.0000000000000000E+00    0.0000000000000000E+00    0.0000000000000000E+00    0.0000000000000000E+00    0.0000000000000000E+00
 -0.3812   0.5911    0.2615276518714298E-01    0.1054771335491240E-05   -0.4229774600209498E-05   -0.4957152521330077E+00   -0.3827376378406527E-02   -0.2280696796144934E-08    0.9927435113115529E-09    0.4461128460999525E-12    0.5456684366508813E-12   -0.8912128196883473E-11
 -0.3818   0.5880    0.2768134398485075E-01    0.1276309424181806E-04   -0.1276573267133499E-04   -0.4828813644588092E+00   -0.3408489783336657E-02   -0.3119545611754062E-07    0.9936454731934719E-09    0.1328444299009135E-11    0.1362190525308615E-11   -0.3560151522544186E-10
 -0.3829   0.5827    0.3015533623636860E-01    0.4529735196135626E-04   -0.1586267789140984E-04   -0.4615714519021857E+00   -0.5841797061434019E-02   -0.1120601792422844E-06    0.9955847648027150E-09    0.1600604197793398E-11    0.1840794010277147E-11   -0.7961889567781322E-10
 -0.3845   0.5755    0.3345576729448771E-01    0.8762662244700285E-04   -0.1067873007992359E-04   -0.4319473520355698E+00   -0.1159232607253975E-01   -0.2137881263995642E-06    0.9982890321683091E-09    0.4229169098257657E-12    0.2248426271556081E-11   -0.1412565203695593E-09
 -0.3865   0.5662    0.3739183378703446E-01    0.1127508650111774E-03   -0.1610435526817884E-05   -0.3943173085620062E+00   -0.1620805996949671E-01   -0.2715877060053061E-06    0.1001429475911038E-08   -0.2677765995051651E-11    0.2569528574289381E-11   -0.2201327314876877E-09
 -0.3888   0.5549    0.4169671534160319E-01    0.1001603942147610E-03    0.6532558966553355E-05   -0.3492102418417034E+00   -0.1534386150997725E-01   -0.2390858759800332E-06    0.1004496771785796E-08   -0.7825431275199080E-11    0.2769177140198031E-11   -0.3143728055654549E-09
 -0.3917   0.5417    0.4604369620659644E-01    0.5008577593215043E-04    0.1050986075059137E-04   -0.2974605710582968E+00   -0.8698822108113973E-02   -0.1174438757225230E-06    0.1006963771046920E-08   -0.1461265917296339E-10    0.2817369167823491E-11   -0.4206831341613260E-09
 -0.3949   0.5266    0.5007121525898534E-01   -0.1193980618717942E-04    0.8434453438299777E-05   -0.2402961629050451E+00   -0.1605257357873437E-02    0.3700315957954750E-07    0.1008531012609143E-08   -0.2229657777852445E-10    0.2741017265592283E-11   -0.5322334725721412E-09