 title="result"
 variables="x","y","P","u","v","t","omega","psi","RES1","RES2","RES3","RES4"
zone,j= 49,i= 49,f=point
 -0.2534   0.6601    0.2504774102838079E-01    0.0000000000000000E+00    0.0000000000000000E+00   -0.5000000000000000E+00    0.0000000000000000E+00    0.0000000000000000E+00    0.0000000000000000E+00    0.0000000000000000E+00    0.0000000000000000E+00    0.0000000000000000E+00
 -0.2538   0.6592    0.2553397741691772E-01    0.0000000000000000E+00    0.0000000000000000E+00   -0.4951439866164553E+00    0.3353896404946764E-03    0.0000000000000000E+00    0.0000000000000000E+00    0.0000000000000000E+00    0.0000000000000000E+00    0.0000000000000000E+00
 -0.2551   0.6562    0.2694332660039668E-01    0.0000000000000000E+00    0.0000000000000000E+00   -0.4805995691689977E+00   -0.4526049008477915E-02    0.0000000000000000E+00    0.0000000000000000E+00    0.0000000000000000E+00    0.0000000000000000E+00    0.0000000000000000E+00
 -0.2573   0.6514    0.2919876944913592E-01    0.0000000000000000E+00    0.0000000000000000E+00   -0.4564549342479066E+00   -0.3705979470280043E-01    0.0000000000000000E+00    0.0000000000000000E+00    0.0000000000000000E+00    0.0000000000000000E+00    0.0000000000000000E+00
 -0.2603   0.6446    0.3224466907675936E-01    0.0000000000000000E+00    0.0000000000000000E+00   -0.4229182547252937E+00   -0.1119219857698480E+00    0.0000000000000000E+00    0.0000000000000000E+00    0.0000000000000000E+00    0.0000000000000000E+00    0.0000000000000000E+00
 -0.2642   0.6359    0.3598322193790479E-01    0.0000000000000000E+00    0.0000000000000000E+00   -0.3804194887270656E+00   -0.2239783281681771E+00    0.0000000000000000E+00    0.0000000000000000E+00    0.0000000000000000E+00    0.0000000000000000E+00    0.0000000000000000E+00
 -0.2689   0.6254    0.4022836939527658E-01    0.0000000000000000E+00    0.0000000000000000E+00   -0.3297570522220225E+00   -0.3541385381539881E+00    0.0000000000000000E+00    0.0000000000000000E+00    0.0000000000000000E+00    0.0000000000000000E+00    0.0000000000000000E+00
 -0.2744   0.6130    0.4469462873974215E-01    0.0000000000000000E+00    0.0000000000000000E+00   -0.2722580150043134E+00   -0.4768260987600564E+00    0.0000000000000000E+00    0.0000000000000000E+00    0.0000000000000000E+00    0.0000000000000000E+00    0.0000000000000000E+00
 -0.2807   0.5989    0.4900599907682708E-01    0.0000000000000000E+00    0.0000000000000000E+00   -0.2098859752223359E+00   -0.5688355931935493E+00    0.0000000000000000E+00    0.0000000000000000E+00    0.0000000000000000E+00    0.0000000000000000E+00    0.0000000000000000E+00
 -0.2877   0.5832    0.5273349838327532E-01    0.0000000000000000E+00    0.0000000000000000E+00   -0.1452185953356525E+00   -0.6183616673945108E+00    0.0000000000000000E+00    0.0000000000000000E+00    0.0000000000000000E+00    0.0000000000000000E+00    0.0000000000000000E+00
 -0.2954   0.5658    0.5545635172172664E-01    0.0000000000000000E+00    0.0000000000000000E+00   -0.8124922056362578E-01   -0.6322463883353411E+00    0.0000000000000000E+00    0.0000000000000000E+00    0.0000000000000000E+00    0.0000000000000000E+00    0.0000000000000000E+00
 -0.3039   0.5468    0.5684022780152280E-01    0.0000000000000000E+00    0.0000000000000000E+00   -0.2103614212159619E-01   -0.6373042785558608E+00    0.0000000000000000E+00    0.0000000000000000E+00    0.0000000000000000E+00    0.0000000000000000E+00    0.0000000000000000E+00
 -0.3130   0.5264    0.5670422218991383E-01    0.0000000000000000E+00    0.0000000000000000E+00    0.3271544938905278E-01   -0.6729296430932947E+00    0.0000000000000000E+00    0.0000000000000000E+00    0.0000000000000000E+00    0.0000000000000000E+00    0.0000000000000000E+00
 -0.3227   0.5045    0.5504689297053148E-01    0.0000000000000000E+00    0.0000000000000000E+00    0.7803988079299327E-01   -0.7777746838139170E+00    0.0000000000000000E+00    0.0000000000000000E+00    0.0000000000000000E+00    0.0000000000000000E+00    0.0000000000000000E+00
 -0.3330   0.4814    0.5201827396304733E-01    0.0000000000000000E+00    0.0000000000000000E+00    0.1139890715937596E+00   -0.9786342906256293E+00    0.0000000000000000E+00    0.0000000000000000E+00    0.0000000000000000E+00    0.0000000000000000E+00    0.0000000000000000E+00
 -0.3438   0.4571    0.4786114895698756E-01    0.0000000000000000E+00    0.0000000000000000E+00    0.1407418365702260E+00   -0.1288170195524730E+01    0.0000000000000000E+00    0.0000000000000000E+00    0.0000000000000000E+00    0.0000000000000000E+00    0.0000000000000000E+00
 -0.3551   0.4318    0.4285768454598318E-01    0.0000000000000000E+00    0.0000000000000000E+00    0.1594915511240396E+00   -0.1709990738875183E+01    0.0000000000000000E+00    0.0000000000000000E+00    0.0000000000000000E+00    0.0000000000000000E+00    0.0000000000000000E+00
 -0.3668   0.4054    0.3730231780884254E-01    0.0000000000000000E+00    0.0000000000000000E+00    0.1721054193951842E+00   -0.2244110821928028E+01    0.0000000000000000E+00    0.0000000000000000E+00    0.0000000000000000E+00    0.0000000000000000E+00    0.0000000000000000E+00
 -0.3789   0.3782    0.3149598331015977E-01    0.0000000000000000E+00    0.0000000000000000E+00    0.1806485777159123E+00   -0.2888109046891234E+01    0.0000000000000000E+00    0.0000000000000000E+00    0.0000000000000000E+00    0.0000000000000000E+00    0.0000000000000000E+00
 -0.3914   0.3502    0.2574939126117331E-01    0.0000000000000000E+00    0.0000000000000000E+00    0.1869481746988937E+00   -0.3634833301355322E+01    0.0000000000000000E+00    0.0000000000000000E+00    0.0000000000000000E+00    0.0000000000000000E+00    0.0000000000000000E+00
 -0.4041   0.3216    0.2038540468185363E-01    0.0000000000000000E+00    0.0000000000000000E+00    0.1923492049176712E+00   -0.4469716186210349E+01    0.0000000000000000E+00    0.0000000000000000E+00    0.0000000000000000E+00    0.0000000000000000E+00    0.0000000000000000E+00
 -0.4171   0.2925    0.1573499387186883E-01    0.0000000000000000E+00    0.0000000000000000E+00    0.1976944209837745E+00   -0.5369714204719208E+01    0.0000000000000000E+00    0.0000000000000000E+00    0.0000000000000000E+00    0.0000000000000000E+00    0.0000000000000000E+00
 -0.4302   0.2630    0.1212324028386578E-01    0.0000000000000000E+00    0.0000000000000000E+00    0.2034461942558091E+00   -0.6304170925576600E+01    0.0000000000000000E+00    0.0000000000000000E+00    0.0000000000000000E+00    0.0000000000000000E+00    0.0000000000000000E+00
 -0.4435   0.2332    0.9846753504160354E-02    0.0000000000000000E+00    0.0000000000000000E+00    0.2098387466754256E+00   -0.7236952219190691E+01    0.0000000000000000E+00    0.0000000000000000E+00    0.0000000000000000E+00    0.0000000000000000E+00    0.0000000000000000E+00
 -0.4568   0.2034    0.9146725013416223E-02    0.0000000000000000E+00    0.0000000000000000E+00    0.2169926674222817E+00   -0.8128792553137568E+01    0.0000000000000000E+00    0.0000000000000000E+00    0.0000000000000000E+00    0.0000000000000000E+00    0.0000000000000000E+00
 -0.4701   0.1735    0.1018247482588670E-01    0.0000000000000000E+00    0.0000000000000000E+00    0.2249784921412047E+00   -0.8939021814195279E+01    0.0000000000000000E+00    0.0000000000000000E+00    0.0000000000000000E+00    0.0000000000000000E+00    0.0000000000000000E+00
 -0.4833   0.1437    0.1300748242368732E-01    0.0000000000000000E+00    0.0000000000000000E+00    0.2338440439425290E+00   -0.9626409882213135E+01    0.0000000000000000E+00    0.0000000000000000E+00    0.0000000000000000E+00    0.0000000000000000E+00    0.0000000000000000E+00
 -0.4964   0.1143    0.1754821581042795E-01    0.0000000000000000E+00    0.0000000000000000E+00    0.2436229182225598E+00   -0.1014963397074619E+02    0.0000000000000000E+00    0.0000000000000000E+00    0.0000000000000000E+00    0.0000000000000000E+00    0.0000000000000000E+00
 -0.5094   0.0851    0.2358617750603751E-01    0.0000000000000000E+00    0.0000000000000000E+00    0.2543349280372377E+00   -0.1046834815385461E+02    0.0000000000000000E+00    0.0000000000000000E+00    0.0000000000000000E+00    0.0000000000000000E+00    0.0000000000000000E+00
 -0.5221   0.0565    0.3074715779257174E-01    0.0000000000000000E+00    0.0000000000000000E+00    0.2659835346773717E+00   -0.1054595425202987E+02    0.0000000000000000E+00    0.0000000000000000E+00    0.0000000000000000E+00    0.0000000000000000E+00    0.0000000000000000E+00
 -0.5346   0.0286    0.3850585965872370E-01    0.0000000000000000E+00    0.0000000000000000E+00    0.2785523953263226E+00   -0.1035466867089144E+02    0.0000000000000000E+00    0.0000000000000000E+00    0.0000000000000000E+00    0.0000000000000000E+00    0.0000000000000000E+00
 -0.5467   0.0013    0.4621670019747711E-01    0.0000000000000000E+00    0.0000000000000000E+00    0.2920021456080609E+00   -0.9882513864556245E+01    0.0000000000000000E+00    0.0000000000000000E+00    0.0000000000000000E+00    0.0000000000000000E+00    0.0000000000000000E+00
 -0.5585  -0.0250    0.5317823541804738E-01    0.0000000000000000E+00    0.0000000000000000E+00    0.3062682122818194E+00   -0.9140479289366642E+01    0.0000000000000000E+00    0.0000000000000000E+00    0.0000000000000000E+00    0.0000000000000000E+00    0.0000000000000000E+00
 -0.5698  -0.0504    0.5872808236154719E-01    0.0000000000000000E+00    0.0000000000000000E+00    0.3212601431942189E+00   -0.8167029464742633E+01    0.0000000000000000E+00    0.0000000000000000E+00    0.0000000000000000E+00    0.0000000000000000E+00    0.0000000000000000E+00
 -0.5806  -0.0747    0.6234962184299257E-01    0.0000000000000000E+00    0.0000000000000000E+00    0.3368623667183828E+00   -0.7027033168631514E+01    0.0000000000000000E+00    0.0000000000000000E+00    0.0000000000000000E+00    0.0000000000000000E+00    0.0000000000000000E+00
 -0.5909  -0.0978    0.6375977931956577E-01    0.0000000000000000E+00    0.0000000000000000E+00    0.3529354876046948E+00   -0.5803822861117927E+01    0.0000000000000000E+00    0.0000000000000000E+00    0.0000000000000000E+00    0.0000000000000000E+00    0.0000000000000000E+00
 -0.6006  -0.1196    0.6294817467327500E-01    0.0000000000000000E+00    0.0000000000000000E+00    0.3693165433696774E+00   -0.4585852571439152E+01    0.0000000000000000E+00    0.0000000000000000E+00    0.0000000000000000E+00    0.0000000000000000E+00    0.0000000000000000E+00
 -0.6097  -0.1401    0.6015478009208559E-01    0.0000000000000000E+00    0.0000000000000000E+00    0.3858166974433977E+00   -0.3452061475095491E+01    0.0000000000000000E+00    0.0000000000000000E+00    0.0000000000000000E+00    0.0000000000000000E+00    0.0000000000000000E+00
 -0.6181  -0.1590    0.5579765635750632E-01    0.0000000000000000E+00    0.0000000000000000E+00    0.4022161894573369E+00   -0.2460630569263327E+01    0.0000000000000000E+00    0.0000000000000000E+00    0.0000000000000000E+00    0.0000000000000000E+00    0.0000000000000000E+00
 -0.6259  -0.1764    0.5037975666840692E-01    0.0000000000000000E+00    0.0000000000000000E+00    0.4182589370443628E+00   -0.1644228803155392E+01    0.0000000000000000E+00    0.0000000000000000E+00    0.0000000000000000E+00    0.0000000000000000E+00    0.0000000000000000E+00
 -0.6329  -0.1922    0.4440571071260723E-01    0.0000000000000000E+00    0.0000000000000000E+00    0.4336517851958906E+00   -0.1011765758013482E+01    0.0000000000000000E+00    0.0000000000000000E+00    0.0000000000000000E+00    0.0000000000000000E+00    0.0000000000000000E+00
 -0.6392  -0.2063    0.3832736808742634E-01    0.0000000000000000E+00    0.0000000000000000E+00    0.4480739098856676E+00   -0.5543502008174975E+00    0.0000000000000000E+00    0.0000000000000000E+00    0.0000000000000000E+00    0.0000000000000000E+00    0.0000000000000000E+00
 -0.6447  -0.2186    0.3252098578541100E-01    0.0000000000000000E+00    0.0000000000000000E+00    0.4611986628176248E+00   -0.2519347258108016E+00    0.0000000000000000E+00    0.0000000000000000E+00    0.0000000000000000E+00    0.0000000000000000E+00    0.0000000000000000E+00
 -0.6493  -0.2292    0.2728596562488401E-01    0.0000000000000000E+00    0.0000000000000000E+00    0.4727238883398795E+00   -0.7806106136963542E-01    0.0000000000000000E+00    0.0000000000000000E+00    0.0000000000000000E+00    0.0000000000000000E+00    0.0000000000000000E+00
 -0.6532  -0.2378    0.2285013407747554E-01    0.0000000000000000E+00    0.0000000000000000E+00    0.4824009353247435E+00   -0.1377025229446358E-02    0.0000000000000000E+00    0.0000000000000000E+00    0.0000000000000000E+00    0.0000000000000000E+00    0.0000000000000000E+00
 -0.6562  -0.2446    0.1936791455575746E-01    0.0000000000000000E+00    0.0000000000000000E+00    0.4900514665438115E+00    0.1389336322554436E-01    0.0000000000000000E+00    0.0000000000000000E+00    0.0000000000000000E+00    0.0000000000000000E+00    0.0000000000000000E+00
 -0.6584  -0.2495    0.1690957105279254E-01    0.0000000000000000E+00    0.0000000000000000E+00    0.4955664047931105E+00    0.5337559327530546E-02    0.0000000000000000E+00    0.0000000000000000E+00    0.0000000000000000E+00    0.0000000000000000E+00    0.0000000000000000E+00
 -0.6597  -0.2524    0.1545433435879013E-01    0.0000000000000000E+00    0.0000000000000000E+00    0.4988901731037687E+00   -0.5862504943970498E-04    0.0000000000000000E+00    0.0000000000000000E+00    0.0000000000000000E+00    0.0000000000000000E+00    0.0000000000000000E+00
 -0.6601  -0.2534    0.1496924382983404E-01    0.0000000000000000E+00    0.0000000000000000E+00    0.5000000000000000E+00    0.0000000000000000E+00    0.0000000000000000E+00    0.0000000000000000E+00    0.0000000000000000E+00    0.0000000000000000E+00    0.0000000000000000E+00
 -0.2524   0.6597    0.2526583378673404E-01    0.0000000000000000E+00    0.0000000000000000E+00   -0.5000000000000000E+00    0.3356010369114523E-03    0.0000000000000000E+00    0.0000000000000000E+00    0.0000000000000000E+00    0.0000000000000000E+00    0.0000000000000000E+00
 -0.2529   0.6587    0.2575101441491694E-01    0.3633701699386176E-07   -0.3620062575014119E-07   -0.4951438453177475E+00   -0.6468050172469441E-03   -0.1190364567181963E-10    0.2809886589898170E-09   -0.7433153485086885E-12   -0.7633151923036596E-12    0.1095411554432463E-10
 -0.2542   0.6558    0.2716195590878680E-01    0.6193928498362038E-05   -0.2005199460853587E-05   -0.4805989963560029E+00   -0.7468824971236352E-02   -0.3053079912361861E-08    0.2757895608933303E-09   -0.1383466258220167E-11   -0.1095745022494654E-11    0.4395541959925642E-10
 -0.2563   0.6509    0.2941987279820250E-01    0.3960564886912599E-04   -0.4627857052924222E-05   -0.4564535965027311E+00   -0.3714649254930845E-01   -0.2126211482135043E-07    0.2710219271229164E-09   -0.1304210862571042E-11   -0.1075629169067227E-11    0.9817401579181873E-10
 -0.2594   0.6441    0.3245973648766972E-01    0.1162241478651052E-03   -0.6280152360637736E-05   -0.4229157466369731E+00   -0.1053971142484901E+00   -0.6282762359732451E-07    0.2679928882975968E-09   -0.9484253660207997E-12   -0.1115666586892772E-11    0.1750222744512087E-09
 -0.2632   0.6355    0.3618166543440098E-01    0.2322303881833224E-03   -0.6699045083545787E-05   -0.3804153675570315E+00   -0.2099930046327951E+00   -0.1256499028695530E-06    0.2661893327288167E-09   -0.5432251870551852E-12   -0.1106240099524314E-11    0.2750755422054052E-09
 -0.2679   0.6249    0.4040107052627830E-01    0.3683053218182731E-03   -0.5902051252884491E-05   -0.3297509333430518E+00   -0.3340323611091347E+00   -0.1990448269024936E-06    0.2653463664070710E-09   -0.3522807046074661E-12   -0.1043679032086686E-11    0.4009847662245214E-09
 -0.2734   0.6126    0.4483471399242139E-01    0.4978834077548148E-03   -0.4362256131199809E-05   -0.2722496992347719E+00   -0.4534055300642758E+00   -0.2687320683308523E-06    0.2644078862107380E-09   -0.5769551503220782E-12   -0.1070216831822179E-11    0.5562034791073422E-09
 -0.2797   0.5985    0.4910997189891055E-01    0.5965508968970382E-03   -0.2520466809626986E-05   -0.2098755584055153E+00   -0.5457305048501568E+00   -0.3215069638269583E-06    0.2621032392860490E-09   -0.1306864338967983E-11   -0.1052595510753207E-11    0.7451303324357283E-09
 -0.2867   0.5827    0.5280166810773000E-01    0.6517013822698164E-03   -0.9706942137008481E-06   -0.1452065048372561E+00   -0.5992381407771108E+00   -0.3506579605905547E-06    0.2567055541660007E-09   -0.2561624523611528E-11   -0.1026907725520942E-11    0.9729338307229440E-09
 -0.2945   0.5653    0.5549279965250558E-01    0.6702379303397207E-03   -0.1750628464182118E-06   -0.8123615325614514E-01   -0.6199920223803286E+00   -0.3599240800694392E-06    0.2462112367283831E-09   -0.4289294613935013E-11   -0.9808725012772079E-12    0.1240972491434178E-08
 -0.3029   0.5464    0.5685169592565821E-01    0.6800697108832774E-03   -0.4315119143754049E-06   -0.2102293250458855E-01   -0.6333032357718059E+00   -0.3644065880272165E-06    0.2282101643075185E-09   -0.6398956017839019E-11   -0.1003967742274625E-11    0.1542401720233677E-08
 -0.3120   0.5259    0.5669834695626162E-01    0.7224595255257900E-03   -0.1656479632318627E-05    0.3272796917286834E-01   -0.6768691561329132E+00   -0.3863391911981203E-06    0.2002762981498374E-09   -0.8731364589675827E-11   -0.9771402437186438E-12    0.1856448397785648E-08
 -0.3217   0.5041    0.5503049544159219E-01    0.8381045297867825E-03   -0.3528680573025052E-05    0.7805098813812816E-01   -0.7880631761336561E+00   -0.4476363421921260E-06    0.1604627498583144E-09   -0.1106063504674459E-10   -0.9513778653769123E-12    0.2146534727742733E-08
 -0.3320   0.4810    0.5199661191049181E-01    0.1055417460416557E-02   -0.5629882285495435E-05    0.1139982331589429E+00   -0.9931784543720665E+00   -0.5635501787663285E-06    0.1079870966952390E-09   -0.1311937364301130E-10   -0.9093767405765618E-12    0.2364471993199224E-08
 -0.3428   0.4567    0.4783808527106757E-01    0.1387979424372709E-02   -0.7707447981746235E-05    0.1407487784536243E+00   -0.1304927005566287E+01   -0.7413479308159118E-06    0.4357480522243495E-10   -0.1464728338618215E-10   -0.8813366703108727E-12    0.2462405751524344E-08
 -0.3541   0.4313    0.4283612457350097E-01    0.1839721230029374E-02   -0.9661818878711263E-05    0.1594963031909941E+00   -0.1727048112297912E+01   -0.9831227113023910E-06   -0.3053414812659305E-10   -0.1537935750972608E-10   -0.8064313106181942E-12    0.2409387044044475E-08
 -0.3658   0.4050    0.3728431484048211E-01    0.2410593406207474E-02   -0.1149669172582823E-04    0.1721082897554385E+00   -0.2259433827316583E+01   -0.1288856570612352E-05   -0.1111287763200242E-09   -0.1501816032645209E-10   -0.7710290739204595E-12    0.2203906834807867E-08
 -0.3780   0.3777    0.3148255627965425E-01    0.3097798566298331E-02   -0.1317641011186370E-04    0.1806500416718057E+00   -0.2899278503315132E+01   -0.1657093893440371E-05   -0.1945065046526917E-09   -0.1322849468854415E-10   -0.6699571453161468E-12    0.1874588819242295E-08
 -0.3904   0.3498    0.2574036534418817E-01    0.3893416639803086E-02   -0.1462867083120968E-04    0.1869487240029759E+00   -0.3638937228736860E+01   -0.2083635286950795E-05   -0.2767613464793595E-09   -0.9683844004459985E-11   -0.6088185511288202E-12    0.1469897701385919E-08
 -0.4032   0.3212    0.2037945831364001E-01    0.4781623868435892E-02   -0.1573286188216792E-04    0.1923492311745009E+00   -0.4463413307097828E+01   -0.2560060273748515E-05   -0.3539725075552003E-09   -0.4207311582460349E-11   -0.5254546797672788E-12    0.1040310014077239E-08
 -0.4161   0.2920    0.1572988710733765E-01    0.5737625735309287E-02   -0.1638330755872901E-04    0.1976941745043359E+00   -0.5349430139047323E+01   -0.3073109399264600E-05   -0.4220456206738277E-09    0.3174557838825365E-11   -0.4582029200506099E-12    0.6257224803400685E-09
 -0.4292   0.2626    0.1211610531720204E-01    0.6728625676687798E-02   -0.1648771107943841E-04    0.2034458053392786E+00   -0.6266370930388856E+01   -0.3605235454931333E-05   -0.4765400782313911E-09    0.1215250122754696E-10   -0.3561456685119424E-12    0.2506875917789031E-09
 -0.4425   0.2328    0.9834361940856009E-02    0.7716123565089045E-02   -0.1599806003841603E-04    0.2098382699845181E+00   -0.7178446178110407E+01   -0.4135784758019068E-05   -0.5129557646699201E-09    0.2219649464230145E-10   -0.2973732371458482E-12   -0.7274560988312917E-10
 -0.4558   0.2029    0.9125647884929231E-02    0.8658421040403695E-02   -0.1487950174474325E-04    0.2169921197463423E+00   -0.8047016650320472E+01   -0.4642392049577765E-05   -0.5270980284188820E-09    0.3259909009400985E-10   -0.2211841820809468E-12   -0.3422791798254887E-09
 -0.4691   0.1731    0.1014914200590922E-01    0.9512454804272321E-02   -0.1311290407010379E-04    0.2249778747314247E+00   -0.8832304661649811E+01   -0.5101905722284573E-05   -0.5158249452574815E-09    0.4264200104131532E-10   -0.1583663755688747E-12   -0.5591571051663524E-09
 -0.4823   0.1433    0.1295814548897887E-01    0.1023469849209990E-01   -0.1066243821438890E-04    0.2338433529847176E+00   -0.9494219046576942E+01   -0.5490936118017818E-05   -0.4774543503616169E-09    0.5165129435269478E-10   -0.1168995455991251E-12   -0.7272401908106629E-09
 -0.4955   0.1138    0.1747892531911599E-01    0.1078167095372946E-01   -0.7492468235120163E-05    0.2436221491672810E+00   -0.9992855289709883E+01   -0.5786054403540332E-05   -0.4122301076880941E-09    0.5906625188956127E-10   -0.8455736111301349E-13   -0.8503997705675004E-09
 -0.5084   0.0847    0.2349283672021709E-01    0.1111109093867679E-01   -0.3571532102873442E-05    0.2543340774505243E+00   -0.1028956312640911E+02   -0.5964487946979537E-05   -0.3223293628534796E-09    0.6446188027808830E-10   -0.1058597653980087E-12   -0.9324977109925747E-09
 -0.5212   0.0561    0.3062579203264743E-01    0.1118481768365783E-01    0.1074373507601447E-05    0.2659826011560449E+00   -0.1034969246623590E+02   -0.6005612099314171E-05   -0.2118266456338502E-09    0.6756112336248066E-10   -0.1022324586097412E-12   -0.9781426363320023E-09
 -0.5336   0.0281    0.3835310091452960E-01    0.1097418588401326E-01    0.6326298598845871E-05    0.2785513798558689E+00   -0.1014746747003276E+02   -0.5893917376491320E-05   -0.8647044018317285E-10    0.6816514019902797E-10   -0.1383095027396308E-12   -0.9912991000976534E-09
 -0.5457   0.0009    0.4603050352206729E-01    0.1046731146355068E-01    0.1191891766068805E-04    0.2920010512763931E+00   -0.9672673221925306E+01   -0.5622846517267606E-05    0.4663673613958252E-10    0.6632894233860043E-10   -0.1808414529236302E-12   -0.9760109370010595E-09
 -0.5575  -0.0255    0.5295860402720599E-01    0.9676518502836861E-02    0.1744319962613245E-04    0.3062670432120962E+00   -0.8937336241742214E+01   -0.5198929008676333E-05    0.1798214424586497E-09    0.6217371062433585E-10   -0.1994376885861016E-12   -0.9369383238005957E-09
 -0.5688  -0.0508    0.5847761191542140E-01    0.8642932375784885E-02    0.2238013252174375E-04    0.3212589028054141E+00   -0.7979834836939623E+01   -0.4644151740687072E-05    0.3055893316172842E-09    0.5608929987133138E-10   -0.2166600232555993E-12   -0.8791334726171440E-09
 -0.5796  -0.0751    0.6207351431324028E-01    0.7435225369680964E-02    0.2620934423701720E-04    0.3368610559096957E+00   -0.6863582804962982E+01   -0.3995450948957521E-05    0.4176657492083180E-09    0.4862121816273657E-10   -0.2229050277691158E-12   -0.8066344987789353E-09
 -0.5899  -0.0982    0.6346528564669028E-01    0.6141208273149680E-02    0.2852655646491938E-04    0.3529341040133139E+00   -0.5669310541749292E+01   -0.3300033178301455E-05    0.5119067669756561E-09    0.4046191159901014E-10   -0.2321753900247359E-12   -0.7244836779107811E-09
 -0.5996  -0.1201    0.6264347617633291E-01    0.4853849953548123E-02    0.2915467168804253E-04    0.3693150831407372E+00   -0.4482231701230674E+01   -0.2608020577186048E-05    0.5866770333429194E-09    0.3229505551871625E-10   -0.2277900090774665E-12   -0.6374255342306290E-09
 -0.6087  -0.1405    0.5984776709026325E-01    0.3655999726507509E-02    0.2817121270907815E-04    0.3858151605324581E+00   -0.3378204799876560E+01   -0.1963995979165733E-05    0.6426347370913632E-09    0.2472005933285004E-10   -0.2425559753049811E-12   -0.5488972228129274E-09
 -0.6171  -0.1594    0.5549487689153798E-01    0.2608690655161651E-02    0.2586535334209022E-04    0.4022145880653705E+00   -0.2413046986677355E+01   -0.1400919820144713E-05    0.6822224035696323E-09    0.1812847094662118E-10   -0.2103317520152359E-12   -0.4623592030073009E-09
 -0.6249  -0.1769    0.5008597655481274E-01    0.1746199423232307E-02    0.2262622344550298E-04    0.4182573045747292E+00   -0.1618152719321731E+01   -0.9371833347652937E-06    0.7085857942068507E-09    0.1269702398776218E-10   -0.2450262215347720E-12   -0.3805318421479242E-09
 -0.6319  -0.1926    0.4412394410129280E-01    0.1077886980318710E-02    0.1883051249982664E-04    0.4336501811384036E+00   -0.1002066902524109E+01   -0.5779238768493650E-06    0.7249904149242425E-09    0.8432789189161127E-11   -0.2317451786026936E-12   -0.3047031828240510E-09
 -0.6382  -0.2067    0.3805940822442994E-01    0.5943792152342045E-03    0.1476079217151497E-04    0.4480724158546347E+00   -0.5562129602010518E+00   -0.3179838996082284E-06    0.7342907774876561E-09    0.5238976787114158E-11   -0.2370048601818553E-12   -0.2360485626407005E-09
 -0.6437  -0.2191    0.3226782269629467E-01    0.2744694560447895E-03    0.1059817492527773E-04    0.4611973676740070E+00   -0.2609648694312439E+00   -0.1461074362214290E-06    0.7388546025000053E-09    0.2988782832336057E-11   -0.2634559237435496E-12   -0.1749225798930443E-09
 -0.6484  -0.2296    0.2704798500304046E-01    0.8999237574410772E-04    0.6497032334849782E-05    0.4727228654038172E+00   -0.9023840121241126E-01   -0.4701388336873688E-07    0.7405518854392001E-09    0.1541912431068937E-11   -0.2787249597790975E-12   -0.1226322984132500E-09
 -0.6522  -0.2383    0.2262634294727896E-01    0.7486615699069805E-05    0.2751595851734842E-05    0.4824002197884196E+00   -0.1275039072131423E-01   -0.2999843503221029E-08    0.7409402700761514E-09    0.7624456621613263E-12   -0.3004419629748512E-12   -0.7891749406740978E-10
 -0.6553  -0.2451    0.1915446658761769E-01   -0.1116831789659492E-04   -0.7689993238513230E-07    0.4900510432283534E+00    0.6765239211881042E-02    0.6693465628831669E-08    0.7411636386986051E-09    0.4612542986448531E-12   -0.3034642849508717E-12   -0.4451269951591397E-10
 -0.6574  -0.2499    0.1669781410484548E-01   -0.4935414711073998E-05   -0.1185246565714847E-05    0.4955662128009589E+00    0.3947106812060592E-02    0.2702368137711939E-08    0.7421122267051161E-09    0.4020724725384284E-12   -0.3393691577757707E-12   -0.1978553995987675E-10
 -0.6587  -0.2529    0.1524022067796071E-01   -0.2015066212739804E-06   -0.2015297566567037E-06    0.4988901248837078E+00    0.7016421321650683E-03    0.1716548962488513E-09    0.7435780152416707E-09    0.2246266866089142E-12   -0.2323011574767442E-12   -0.5222931841793871E-11
 -0.6592  -0.2538    0.1475488842775498E-01    0.0000000000000000E+00    0.0000000000000000E+00    0.5000000000000000E+00   -0.5830029659326048E-04    0.0000000000000000E+00    0.0000000000000000E+00    0.0000000000000000E+00    0.0000000000000000E+00    0.0000000000000000E+00
 -0.2495   0.6584    0.2593804364641060E-01    0.0000000000000000E+00    0.0000000000000000E+00   -0.5000000000000000E+00   -0.4522489442254269E-02    0.0000000000000000E+00    0.0000000000000000E+00    0.0000000000000000E+00    0.0000000000000000E+00    0.0000000000000000E+00
 -0.2499   0.6574    0.2641530200637745E-01    0.2003816587534291E-05   -0.6191501128749008E-05   -0.4951417539030694E+00   -0.7467516362024983E-02   -0.3051519157241606E-08    0.2761325300359996E-09   -0.1069678498338486E-11   -0.1470841243939036E-11    0.1089814306506898E-10
 -0.2512   0.6545    0.2781673288042612E-01    0.3144638780257524E-04   -0.3145060410328647E-04   -0.4805905508276531E+00   -0.1606994037863311E-01   -0.6243469819996720E-07    0.2740767630210472E-09   -0.3165650359036876E-11   -0.3588357042061396E-11    0.4362078450184659E-10
 -0.2534   0.6496    0.3006964286358560E-01    0.1524419155649453E-03   -0.6735014099473504E-04   -0.4564340507708001E+00   -0.3821936235453622E-01   -0.3325862295459797E-06    0.2707808005597556E-09   -0.4020239002811010E-11   -0.4421428501100166E-11    0.9792457990320802E-10
 -0.2564   0.6428    0.3308963001965476E-01    0.4238106046485914E-03   -0.9339404487095402E-04   -0.4228794551709258E+00   -0.8897854343442979E-01   -0.9444792808916880E-06    0.2678871707795238E-09   -0.3452012981020047E-11   -0.4621060478715577E-11    0.1746158963950029E-09
 -0.2603   0.6342    0.3676504232038469E-01    0.8445885690306903E-03   -0.1009738923432795E-03   -0.3803560870892059E+00   -0.1728059566087872E+00   -0.1884065908725646E-05    0.2659633555057717E-09   -0.2478597188604326E-11   -0.4509573270361500E-11    0.2749313346428472E-09
 -0.2650   0.6236    0.4091181789346626E-01    0.1351631436580405E-02   -0.9088565418417120E-04   -0.3296630549754918E+00   -0.2792745873795835E+00   -0.3002800352676977E-05    0.2647408056666301E-09   -0.2151799571858959E-11   -0.4291050154092702E-11    0.4006281625890118E-09
 -0.2705   0.6113    0.4525240952025501E-01    0.1848894013889590E-02   -0.6856726629503223E-04   -0.2721300550196732E+00   -0.3888637759842570E+00   -0.4085684723785302E-05    0.2633932238982339E-09   -0.3310268725797982E-11   -0.4010503734663828E-11    0.5559440754976386E-09
 -0.2767   0.5972    0.4942351858328024E-01    0.2244377263082816E-02   -0.4145274064891048E-04   -0.2097250955599848E+00   -0.4817248014572214E+00   -0.4930522012078210E-05    0.2606265724069967E-09   -0.6365664939611548E-11   -0.3772248138855794E-11    0.7447881616995389E-09