 title="result"
 variables="x","y","P","u","v","t","omega","psi","RES1","RES2","RES3","RES4"
zone,j= 49,i= 49,f=point
 -0.2679   0.6544    0.2499571372254356E-01    0.0000000000000000E+00    0.0000000000000000E+00   -0.5000000000000000E+00    0.0000000000000000E+00    0.0000000000000000E+00    0.0000000000000000E+00    0.0000000000000000E+00    0.0000000000000000E+00    0.0000000000000000E+00
 -0.2683   0.6534    0.2548654207801785E-01    0.0000000000000000E+00    0.0000000000000000E+00   -0.4951943534025834E+00    0.2905476701007735E-03    0.0000000000000000E+00    0.0000000000000000E+00    0.0000000000000000E+00    0.0000000000000000E+00    0.0000000000000000E+00
 -0.2696   0.6504    0.2691200045481666E-01    0.0000000000000000E+00    0.0000000000000000E+00   -0.4808007399340924E+00   -0.4431656197011680E-02    0.0000000000000000E+00    0.0000000000000000E+00    0.0000000000000000E+00    0.0000000000000000E+00    0.0000000000000000E+00
 -0.2716   0.6455    0.2919608824584211E-01    0.0000000000000000E+00    0.0000000000000000E+00   -0.4569059228636861E+00   -0.3450030651981368E-01    0.0000000000000000E+00    0.0000000000000000E+00    0.0000000000000000E+00    0.0000000000000000E+00    0.0000000000000000E+00
 -0.2745   0.6387    0.3227601002556602E-01    0.0000000000000000E+00    0.0000000000000000E+00   -0.4237134998697669E+00   -0.1025005859563276E+00    0.0000000000000000E+00    0.0000000000000000E+00    0.0000000000000000E+00    0.0000000000000000E+00    0.0000000000000000E+00
 -0.2782   0.6299    0.3604246083944468E-01    0.0000000000000000E+00    0.0000000000000000E+00   -0.3816410809605246E+00   -0.2032018805804903E+00    0.0000000000000000E+00    0.0000000000000000E+00    0.0000000000000000E+00    0.0000000000000000E+00    0.0000000000000000E+00
 -0.2826   0.6193    0.4029958004240097E-01    0.0000000000000000E+00    0.0000000000000000E+00   -0.3314596090469266E+00   -0.3192949776065978E+00    0.0000000000000000E+00    0.0000000000000000E+00    0.0000000000000000E+00    0.0000000000000000E+00    0.0000000000000000E+00
 -0.2879   0.6068    0.4475692377648055E-01    0.0000000000000000E+00    0.0000000000000000E+00   -0.2744467346873062E+00   -0.4281496206186363E+00    0.0000000000000000E+00    0.0000000000000000E+00    0.0000000000000000E+00    0.0000000000000000E+00    0.0000000000000000E+00
 -0.2938   0.5926    0.4903969745120085E-01    0.0000000000000000E+00    0.0000000000000000E+00   -0.2124950652878554E+00   -0.5096938298593408E+00    0.0000000000000000E+00    0.0000000000000000E+00    0.0000000000000000E+00    0.0000000000000000E+00    0.0000000000000000E+00
 -0.3005   0.5767    0.5272516501299392E-01    0.0000000000000000E+00    0.0000000000000000E+00   -0.1481032020639068E+00   -0.5544712419633704E+00    0.0000000000000000E+00    0.0000000000000000E+00    0.0000000000000000E+00    0.0000000000000000E+00    0.0000000000000000E+00
 -0.3079   0.5591    0.5540128128714000E-01    0.0000000000000000E+00    0.0000000000000000E+00   -0.8420280541896777E-01   -0.5701503007445916E+00    0.0000000000000000E+00    0.0000000000000000E+00    0.0000000000000000E+00    0.0000000000000000E+00    0.0000000000000000E+00
 -0.3159   0.5399    0.5674138473110921E-01    0.0000000000000000E+00    0.0000000000000000E+00   -0.2383421635605921E-01   -0.5826193067813819E+00    0.0000000000000000E+00    0.0000000000000000E+00    0.0000000000000000E+00    0.0000000000000000E+00    0.0000000000000000E+00
 -0.3245   0.5193    0.5656831768708106E-01    0.0000000000000000E+00    0.0000000000000000E+00    0.3025956427442384E-01   -0.6290733847291662E+00    0.0000000000000000E+00    0.0000000000000000E+00    0.0000000000000000E+00    0.0000000000000000E+00    0.0000000000000000E+00
 -0.3337   0.4973    0.5487973711830827E-01    0.0000000000000000E+00    0.0000000000000000E+00    0.7603033514062991E-01   -0.7457010648928748E+00    0.0000000000000000E+00    0.0000000000000000E+00    0.0000000000000000E+00    0.0000000000000000E+00    0.0000000000000000E+00
 -0.3435   0.4740    0.5182218610913056E-01    0.0000000000000000E+00    0.0000000000000000E+00    0.1124325738490971E+00   -0.9575227136799416E+00    0.0000000000000000E+00    0.0000000000000000E+00    0.0000000000000000E+00    0.0000000000000000E+00    0.0000000000000000E+00
 -0.3538   0.4494    0.4763549889602326E-01    0.0000000000000000E+00    0.0000000000000000E+00    0.1395665528718016E+00   -0.1276456574298061E+01    0.0000000000000000E+00    0.0000000000000000E+00    0.0000000000000000E+00    0.0000000000000000E+00    0.0000000000000000E+00
 -0.3645   0.4238    0.4260141475049210E-01    0.0000000000000000E+00    0.0000000000000000E+00    0.1585874877220417E+00   -0.1706121203631907E+01    0.0000000000000000E+00    0.0000000000000000E+00    0.0000000000000000E+00    0.0000000000000000E+00    0.0000000000000000E+00
 -0.3757   0.3972    0.3701637434350209E-01    0.0000000000000000E+00    0.0000000000000000E+00    0.1713655241274101E+00   -0.2246814390857989E+01    0.0000000000000000E+00    0.0000000000000000E+00    0.0000000000000000E+00    0.0000000000000000E+00    0.0000000000000000E+00
 -0.3872   0.3697    0.3118460259728997E-01    0.0000000000000000E+00    0.0000000000000000E+00    0.1799939009661101E+00   -0.2896338674535949E+01    0.0000000000000000E+00    0.0000000000000000E+00    0.0000000000000000E+00    0.0000000000000000E+00    0.0000000000000000E+00
 -0.3990   0.3415    0.2542030948727186E-01    0.0000000000000000E+00    0.0000000000000000E+00    0.1863330088977376E+00   -0.3647571841517496E+01    0.0000000000000000E+00    0.0000000000000000E+00    0.0000000000000000E+00    0.0000000000000000E+00    0.0000000000000000E+00
 -0.4111   0.3126    0.2004944459950174E-01    0.0000000000000000E+00    0.0000000000000000E+00    0.1917532408879912E+00   -0.4485762851534147E+01    0.0000000000000000E+00    0.0000000000000000E+00    0.0000000000000000E+00    0.0000000000000000E+00    0.0000000000000000E+00
 -0.4235   0.2832    0.1540517814511558E-01    0.0000000000000000E+00    0.0000000000000000E+00    0.1971118073621144E+00   -0.5387507623924346E+01    0.0000000000000000E+00    0.0000000000000000E+00    0.0000000000000000E+00    0.0000000000000000E+00    0.0000000000000000E+00
 -0.4359   0.2534    0.1181339778196943E-01    0.0000000000000000E+00    0.0000000000000000E+00    0.2028774636791677E+00   -0.6321685349514284E+01    0.0000000000000000E+00    0.0000000000000000E+00    0.0000000000000000E+00    0.0000000000000000E+00    0.0000000000000000E+00
 -0.4485   0.2234    0.9569558403484531E-02    0.0000000000000000E+00    0.0000000000000000E+00    0.2092866505030631E+00   -0.7251677169395172E+01    0.0000000000000000E+00    0.0000000000000000E+00    0.0000000000000000E+00    0.0000000000000000E+00    0.0000000000000000E+00
 -0.4612   0.1932    0.8911267411360793E-02    0.0000000000000000E+00    0.0000000000000000E+00    0.2164605682245568E+00   -0.8137790697536028E+01    0.0000000000000000E+00    0.0000000000000000E+00    0.0000000000000000E+00    0.0000000000000000E+00    0.0000000000000000E+00
 -0.4738   0.1631    0.9991549849518970E-02    0.0000000000000000E+00    0.0000000000000000E+00    0.2244698681120651E+00   -0.8939057266027325E+01    0.0000000000000000E+00    0.0000000000000000E+00    0.0000000000000000E+00    0.0000000000000000E+00    0.0000000000000000E+00
 -0.4864   0.1330    0.1285491010586071E-01    0.0000000000000000E+00    0.0000000000000000E+00    0.2333623162129697E+00   -0.9614157259886854E+01    0.0000000000000000E+00    0.0000000000000000E+00    0.0000000000000000E+00    0.0000000000000000E+00    0.0000000000000000E+00
 -0.4989   0.1033    0.1741660957289078E-01    0.0000000000000000E+00    0.0000000000000000E+00    0.2431713164616486E+00   -0.1012198989958306E+02    0.0000000000000000E+00    0.0000000000000000E+00    0.0000000000000000E+00    0.0000000000000000E+00    0.0000000000000000E+00
 -0.5112   0.0739    0.2344577602244132E-01    0.0000000000000000E+00    0.0000000000000000E+00    0.2539163328662946E+00   -0.1042286368086100E+02    0.0000000000000000E+00    0.0000000000000000E+00    0.0000000000000000E+00    0.0000000000000000E+00    0.0000000000000000E+00
 -0.5233   0.0450    0.3055645996280979E-01    0.0000000000000000E+00    0.0000000000000000E+00    0.2656003073971306E+00   -0.1048136655916006E+02    0.0000000000000000E+00    0.0000000000000000E+00    0.0000000000000000E+00    0.0000000000000000E+00    0.0000000000000000E+00
 -0.5351   0.0168    0.3821475235173576E-01    0.0000000000000000E+00    0.0000000000000000E+00    0.2782062262918808E+00   -0.1027144489100351E+02    0.0000000000000000E+00    0.0000000000000000E+00    0.0000000000000000E+00    0.0000000000000000E+00    0.0000000000000000E+00
 -0.5466  -0.0107    0.4577228027181946E-01    0.0000000000000000E+00    0.0000000000000000E+00    0.2916939565088107E+00   -0.9783241030081458E+01    0.0000000000000000E+00    0.0000000000000000E+00    0.0000000000000000E+00    0.0000000000000000E+00    0.0000000000000000E+00
 -0.5578  -0.0373    0.5253261365150184E-01    0.0000000000000000E+00    0.0000000000000000E+00    0.3059981382907817E+00   -0.9029898846098394E+01    0.0000000000000000E+00    0.0000000000000000E+00    0.0000000000000000E+00    0.0000000000000000E+00    0.0000000000000000E+00
 -0.5685  -0.0630    0.5784635718891900E-01    0.0000000000000000E+00    0.0000000000000000E+00    0.3210275967166320E+00   -0.8051565549856150E+01    0.0000000000000000E+00    0.0000000000000000E+00    0.0000000000000000E+00    0.0000000000000000E+00    0.0000000000000000E+00
 -0.5788  -0.0875    0.6121559687384859E-01    0.0000000000000000E+00    0.0000000000000000E+00    0.3366661504293005E+00   -0.6913830307250208E+01    0.0000000000000000E+00    0.0000000000000000E+00    0.0000000000000000E+00    0.0000000000000000E+00    0.0000000000000000E+00
 -0.5886  -0.1108    0.6237744294151053E-01    0.0000000000000000E+00    0.0000000000000000E+00    0.3527738958814098E+00   -0.5699522423377023E+01    0.0000000000000000E+00    0.0000000000000000E+00    0.0000000000000000E+00    0.0000000000000000E+00    0.0000000000000000E+00
 -0.5978  -0.1329    0.6133851434053427E-01    0.0000000000000000E+00    0.0000000000000000E+00    0.3691873899383208E+00   -0.4495486449370228E+01    0.0000000000000000E+00    0.0000000000000000E+00    0.0000000000000000E+00    0.0000000000000000E+00    0.0000000000000000E+00
 -0.6064  -0.1535    0.5834936012585314E-01    0.0000000000000000E+00    0.0000000000000000E+00    0.3857172480347653E+00   -0.3378407678758089E+01    0.0000000000000000E+00    0.0000000000000000E+00    0.0000000000000000E+00    0.0000000000000000E+00    0.0000000000000000E+00
 -0.6145  -0.1726    0.5383146627091296E-01    0.0000000000000000E+00    0.0000000000000000E+00    0.4021430528761811E+00   -0.2404177647809614E+01    0.0000000000000000E+00    0.0000000000000000E+00    0.0000000000000000E+00    0.0000000000000000E+00    0.0000000000000000E+00
 -0.6218  -0.1902    0.4828559589206750E-01    0.0000000000000000E+00    0.0000000000000000E+00    0.4182080351510882E+00   -0.1603640762613671E+01    0.0000000000000000E+00    0.0000000000000000E+00    0.0000000000000000E+00    0.0000000000000000E+00    0.0000000000000000E+00
 -0.6285  -0.2061    0.4221118150380958E-01    0.0000000000000000E+00    0.0000000000000000E+00    0.4336185254413920E+00   -0.9845856404761471E+00    0.0000000000000000E+00    0.0000000000000000E+00    0.0000000000000000E+00    0.0000000000000000E+00    0.0000000000000000E+00
 -0.6345  -0.2204    0.3605427670206877E-01    0.0000000000000000E+00    0.0000000000000000E+00    0.4480535947366901E+00   -0.5376684649060804E+00    0.0000000000000000E+00    0.0000000000000000E+00    0.0000000000000000E+00    0.0000000000000000E+00    0.0000000000000000E+00
 -0.6397  -0.2328    0.3018619039946383E-01    0.0000000000000000E+00    0.0000000000000000E+00    0.4611870278995646E+00   -0.2428641589137927E+00    0.0000000000000000E+00    0.0000000000000000E+00    0.0000000000000000E+00    0.0000000000000000E+00    0.0000000000000000E+00
 -0.6441  -0.2435    0.2490265988105355E-01    0.0000000000000000E+00    0.0000000000000000E+00    0.4727175600376444E+00   -0.7399348365221595E-01    0.0000000000000000E+00    0.0000000000000000E+00    0.0000000000000000E+00    0.0000000000000000E+00    0.0000000000000000E+00
 -0.6478  -0.2522    0.2042889126573027E-01    0.0000000000000000E+00    0.0000000000000000E+00    0.4823976197819574E+00   -0.1179651094734154E-03    0.0000000000000000E+00    0.0000000000000000E+00    0.0000000000000000E+00    0.0000000000000000E+00    0.0000000000000000E+00
 -0.6507  -0.2591    0.1691744758210685E-01    0.0000000000000000E+00    0.0000000000000000E+00    0.4900498217073542E+00    0.1400356730622915E-01    0.0000000000000000E+00    0.0000000000000000E+00    0.0000000000000000E+00    0.0000000000000000E+00    0.0000000000000000E+00
 -0.6527  -0.2640    0.1443750483750835E-01    0.0000000000000000E+00    0.0000000000000000E+00    0.4955657121964037E+00    0.5264680173861920E-02    0.0000000000000000E+00    0.0000000000000000E+00    0.0000000000000000E+00    0.0000000000000000E+00    0.0000000000000000E+00
 -0.6540  -0.2669    0.1296855487696806E-01    0.0000000000000000E+00    0.0000000000000000E+00    0.4988900021268143E+00   -0.6281718737790439E-04    0.0000000000000000E+00    0.0000000000000000E+00    0.0000000000000000E+00    0.0000000000000000E+00    0.0000000000000000E+00
 -0.6544  -0.2679    0.1247872248522172E-01    0.0000000000000000E+00    0.0000000000000000E+00    0.5000000000000000E+00    0.0000000000000000E+00    0.0000000000000000E+00    0.0000000000000000E+00    0.0000000000000000E+00    0.0000000000000000E+00    0.0000000000000000E+00
 -0.2669   0.6540    0.2520305195198613E-01    0.0000000000000000E+00    0.0000000000000000E+00   -0.5000000000000000E+00    0.2906861745168124E-03    0.0000000000000000E+00    0.0000000000000000E+00    0.0000000000000000E+00    0.0000000000000000E+00    0.0000000000000000E+00
 -0.2673   0.6530    0.2569288771016412E-01    0.5248706112517873E-07   -0.5239275989206174E-07   -0.4951942161012024E+00   -0.6277628249866203E-03   -0.2403699450941458E-10   -0.1558410572951533E-08   -0.2795138252797980E-13   -0.2636692947310948E-13    0.5721452174881070E-11
 -0.2686   0.6500    0.2711969900581709E-01    0.5914543386816325E-05   -0.1883838124947797E-05   -0.4808001838525338E+00   -0.7008883505723124E-02   -0.2934550636936073E-08   -0.1558763335855057E-08   -0.1001113254794905E-12   -0.6295311494319833E-14    0.2373312527406690E-10
 -0.2706   0.6451    0.2940564272777199E-01    0.3671882960298755E-04   -0.4234338143375528E-05   -0.4569046277314719E+00   -0.3429189116248452E-01   -0.1973986175277204E-07   -0.1559971398584770E-08   -0.4710793387319168E-13   -0.3755676325489787E-13    0.5260542695895154E-10
 -0.2735   0.6383    0.3247933591542695E-01    0.1062770935291857E-03   -0.5671561680503123E-05   -0.4237110812479217E+00   -0.9621998484775496E-01   -0.5747854089470608E-07   -0.1562291854911857E-08    0.4422920363289506E-12   -0.6118022755075003E-13    0.9308177666145223E-10
 -0.2772   0.6295    0.3622983012225412E-01    0.2105352411518589E-03   -0.5996772744237110E-05   -0.3816371210286646E+00   -0.1902296056862860E+00   -0.1139402660205385E-06   -0.1565001871151050E-08    0.1678830685580834E-11   -0.1079795974856523E-12    0.1414522318721190E-09
 -0.2816   0.6189    0.4046271918679773E-01    0.3319594063253128E-03   -0.5250515582720243E-05   -0.3314537406314191E+00   -0.3009689827517655E+00   -0.1794208591521902E-06   -0.1566806949807042E-08    0.3709317575317783E-11   -0.1004508975999130E-12    0.1923897569033883E-09
 -0.2869   0.6064    0.4488964394830054E-01    0.4470412740911361E-03   -0.3867338269505802E-05   -0.2744387547364336E+00   -0.4070950675204258E+00   -0.2412933176040774E-06   -0.1566338877177775E-08    0.6359759940899323E-11   -0.1436455121517355E-12    0.2365633175460680E-09
 -0.2928   0.5922    0.4913887854392644E-01    0.5346640001744439E-03   -0.2246213907998619E-05   -0.2124850364875302E+00   -0.4892521134475490E+00   -0.2881278142684935E-06   -0.1562476954243552E-08    0.9261293121287650E-11   -0.1115635361870204E-12    0.2567386025997820E-09
 -0.2995   0.5763    0.5279115187257673E-01    0.5847186139058658E-03   -0.9222867251371677E-06   -0.1480914946319669E+00   -0.5379882076334411E+00   -0.3145533128206325E-06   -0.1554272929110700E-08    0.1202826033219750E-10   -0.9329689798498464E-13    0.2307088825537207E-09
 -0.3069   0.5587    0.5543786214785298E-01    0.6050158251217065E-03   -0.3121467660534156E-06   -0.8419005379950367E-01   -0.5602366578005120E+00   -0.3247898933215499E-06   -0.1540776148811415E-08    0.1430689247627903E-10   -0.5142110695577351E-13    0.1324691606408024E-09
 -0.3149   0.5395    0.5675479065839101E-01    0.6225294311873465E-03   -0.6802229012881124E-06   -0.2382121040797992E-01   -0.5804876485323314E+00   -0.3334291239445394E-06   -0.1520703222851125E-08    0.1588544833869276E-10   -0.5763618748932942E-14   -0.6154873832819874E-10
 -0.3235   0.5189    0.5656560996727594E-01    0.6762374639636962E-03   -0.1941920716694820E-05    0.3027200416021593E-01   -0.6343696553315938E+00   -0.3614684443704512E-06   -0.1491994528358270E-08    0.1670353959315474E-10    0.1140233740759555E-13   -0.3675672405334396E-09
 -0.3328   0.4969    0.5486725226940499E-01    0.8042554612665904E-03   -0.3795120893032305E-05    0.7604146489119885E-01   -0.7568967410010294E+00   -0.4294315411309370E-06   -0.1451936932662934E-08    0.1681996902869187E-10    0.7118611256018426E-13   -0.7881733737891139E-09
 -0.3425   0.4735    0.5180485751046593E-01    0.1033120313457596E-02   -0.5853597458917615E-05    0.1124418180724994E+00   -0.9726320426256938E+00   -0.5515611612894749E-06   -0.1397045791551310E-08    0.1632675245000215E-10    0.1246329428550297E-12   -0.1308131887534092E-08
 -0.3528   0.4490    0.4761701291498780E-01    0.1375612190681055E-02   -0.7886584833156777E-05    0.1395735932847579E+00   -0.1293534439463959E+01   -0.7346977086458814E-06   -0.1323963430208130E-08    0.1524584625212100E-10    0.1723690634669595E-12   -0.1892068404729663E-08
 -0.3636   0.4234    0.4258458815143167E-01    0.1835654942002224E-02   -0.9805624144801994E-05    0.1585923226838332E+00   -0.1723319923364176E+01   -0.9809326909894270E-06   -0.1230243608374426E-08    0.1348635092490724E-10    0.2573982693654386E-12   -0.2488412711998400E-08
 -0.3747   0.3968    0.3700321222859026E-01    0.2413484919021712E-02   -0.1161333420808581E-04    0.1713684490664635E+00   -0.2262131502956463E+01   -0.1290405194627062E-05   -0.1115432534531946E-08    0.1082962886034267E-10    0.3106542800779266E-12   -0.3039247024189118E-08
 -0.3862   0.3693    0.3117608778700337E-01    0.3106532683330106E-02   -0.1327099868093867E-04    0.1799953935108137E+00   -0.2907365556399511E+01   -0.1661782698889118E-05   -0.9814658703810597E-09    0.7014309272301844E-11    0.4197892033985795E-12   -0.3495244023030142E-08
 -0.3981   0.3410    0.2541623342344395E-01    0.3906903662918749E-02   -0.1470086275142421E-04    0.1863335696479229E+00   -0.3651394853784474E+01   -0.2090881621511709E-05   -0.8326316962292690E-09    0.1767903531901815E-11    0.4764938443813094E-12   -0.3826583435534436E-08
 -0.4102   0.3122    0.2004844865022683E-01    0.4798575792169136E-02   -0.1577918689115976E-04    0.1917532698433649E+00   -0.4479035991738108E+01   -0.2569174652101907E-05   -0.6752697255529849E-09   -0.5154616317115668E-11    0.5527384105974420E-12   -0.4027684985064093E-08
 -0.4225   0.2828    0.1540498313405475E-01    0.5756371954778999E-02   -0.1639698673949686E-04    0.1971115600212133E+00   -0.5366658112020937E+01   -0.3083197914494145E-05   -0.5171593119024376E-09   -0.1387177178679977E-10    0.6355194148710552E-12   -0.4111348940981363E-08
 -0.4349   0.2530    0.1181109623364894E-01    0.6747006491389901E-02   -0.1646142084984549E-04    0.2028770726893730E+00   -0.6283195191002319E+01   -0.3615139997658356E-05   -0.3670244316800186E-09   -0.2429219325694731E-10    0.6655648254749735E-12   -0.4100822351832401E-08
 -0.4475   0.2230    0.9561886581212101E-02    0.7731472191343676E-02   -0.1592404074167604E-04    0.2092861713308424E+00   -0.7192395023453147E+01   -0.4144074650597742E-05   -0.2338653125322221E-09   -0.3610220455918522E-10    0.7065736884470653E-12   -0.4020601476750763E-08
 -0.4602   0.1928    0.8894768364598208E-02    0.8667627949650248E-02   -0.1475169321129214E-04    0.2164600178831816E+00   -0.8055218211037088E+01   -0.4647396127972771E-05   -0.1262572789373362E-09   -0.4868380698574981E-10    0.7036454752196164E-12   -0.3891618474520520E-08
 -0.4728   0.1627    0.9962638115049069E-02    0.9512106286107899E-02   -0.1292703463020808E-04    0.2244692479446136E+00   -0.8831617235515775E+01   -0.5101788220333058E-05   -0.5141669034980367E-10   -0.6121192441810308E-10    0.6795675133730583E-12   -0.3729942176303180E-08
 -0.4854   0.1326    0.1280984060778242E-01    0.1022129978599642E-01   -0.1041839206443458E-04    0.2333616225117301E+00   -0.9481439145285997E+01   -0.5483814288315832E-05   -0.1424681553285900E-10   -0.7265749113471998E-10    0.6033784583081570E-12   -0.3547627246656970E-08
 -0.4979   0.1028    0.1735146534569303E-01    0.1075197646002444E-01   -0.7195546167861826E-05    0.2431705448293544E+00   -0.9965022786552176E+01   -0.5770177804671971E-05   -0.1640119637325022E-10   -0.8197481582428168E-10    0.5055955654142963E-12   -0.3352991856386822E-08
 -0.5102   0.0735    0.2335653356618341E-01    0.1106255947643722E-01   -0.3235665967027294E-05    0.2539154800608202E+00   -0.1024437964185049E+02   -0.5938481521722178E-05   -0.5565936427032181E-10   -0.8812367502386564E-10    0.3470713300091077E-12   -0.3151829242042936E-08
 -0.5223   0.0446    0.3043926968993361E-01    0.1111616888721561E-01    0.1425260731192508E-05    0.2655993722231121E+00   -0.1028602881811172E+02   -0.5968778290645151E-05   -0.1255721351553496E-09   -0.9022116387313872E-10    0.1939238700177093E-12   -0.2948174636710488E-08
 -0.5341   0.0163    0.3806642544551877E-01    0.1088596472720148E-01    0.6657430243884871E-05    0.2782052099208072E+00   -0.1006587481681630E+02   -0.5846539390945402E-05   -0.2158118943967891E-09   -0.8776201987359400E-10    0.2238487173400472E-13   -0.2744413021490977E-08
 -0.5456  -0.0111    0.4559099261713579E-01    0.1036228737652351E-01    0.1218822134189123E-04    0.2916928621474029E+00   -0.9575738369709427E+01   -0.5566407334317671E-05   -0.3133961978818434E-09   -0.8074629853638271E-10   -0.1890779199875681E-12   -0.2541903368347143E-08
 -0.5568  -0.0378    0.5231859863997766E-01    0.9559709907907997E-02    0.1760776341722969E-04    0.3059969700764983E+00   -0.8829693322396713E+01   -0.5136124531917517E-05   -0.4046057308637607E-09   -0.6972433741481154E-10   -0.3911593271510583E-12   -0.2341351437382122E-08
 -0.5675  -0.0634    0.5760240328957341E-01    0.8521103280139228E-02    0.2240642027836445E-04    0.3210263579711837E+00   -0.7867696109978387E+01   -0.4578623326334327E-05   -0.4776629022873458E-09   -0.5590278240319435E-10   -0.5480754738940163E-12   -0.2142662651472005E-08
 -0.5778  -0.0879    0.6094701427644598E-01    0.7315874083382428E-02    0.2608232016519556E-04    0.3366648418850404E+00   -0.6753812147658312E+01   -0.3931238332865315E-05   -0.5250955642521760E-09   -0.4090355831820602E-10   -0.6531580831747874E-12   -0.1944379043189448E-08
 -0.5876  -0.1112    0.6209147824334728E-01    0.6031289935240683E-02    0.2825510244084354E-04    0.3527725150297410E+00   -0.5568259901848299E+01   -0.3240887452358201E-05   -0.5450902437753591E-09   -0.2648647967617990E-10   -0.7344402863651567E-12   -0.1747574107993644E-08
 -0.5968  -0.1333    0.6104323669082996E-01    0.4758625850155226E-02    0.2876949397264271E-04    0.3691859329080276E+00   -0.4394698362222027E+01   -0.2556779563790950E-05   -0.5412215745015381E-09   -0.1413730243982059E-10   -0.7387424005855792E-12   -0.1551288481352331E-08
 -0.6054  -0.1539    0.5805247522991471E-01    0.3578369951760719E-02    0.2771664691196513E-04    0.3857157149616348E+00   -0.3306828415438401E+01   -0.1922225948257601E-05   -0.5206213030128914E-09   -0.4781619544758087E-11   -0.7639167076689546E-12   -0.1355836670366428E-08
 -0.6135  -0.1730    0.5353931578457287E-01    0.2549159878587740E-02    0.2538819657978140E-04    0.4021414563021473E+00   -0.2358282038994713E+01   -0.1368893289655225E-05   -0.4915573850738930E-09    0.1318847808740031E-11   -0.7080586117425014E-12   -0.1162790074296649E-08
 -0.6208  -0.1906    0.4800276081358261E-01    0.1703362793668101E-02    0.2216616319344571E-04    0.4182064088184551E+00   -0.1578710409745896E+01   -0.9141447971742051E-06   -0.4612547635507447E-09    0.4509462248059037E-11   -0.6699224508466273E-12   -0.9737960923739131E-09
 -0.6275  -0.2066    0.4194053645952820E-01    0.1049163497875571E-02    0.1841560295688087E-04    0.4336169289366412E+00   -0.9755827670582318E+00   -0.5624819125226419E-06   -0.4346056778348206E-09    0.5475730979753735E-11   -0.6419725862016890E-12   -0.7921806856325819E-09
 -0.6335  -0.2208    0.3579751857459568E-01    0.5767095665300999E-03    0.1440740042301253E-04    0.4480521093286661E+00   -0.5398807207037386E+00   -0.3084923712394699E-06   -0.4140832572663289E-09    0.5023168513085263E-11   -0.5970224314921779E-12   -0.6213131346216594E-09
 -0.6387  -0.2332    0.2994424029192232E-01    0.2648134286231336E-03    0.1031557681476042E-04    0.4611857416330180E+00   -0.2519925211411194E+00   -0.1409284305958449E-06   -0.4000521441893667E-09    0.3898013856140636E-11   -0.6175684963416472E-12   -0.4651183674320158E-09
 -0.6431  -0.2439    0.2467583897751117E-01    0.8560273587440774E-04    0.6290656172244021E-05    0.4727165451501560E+00   -0.8610080043123575E-01   -0.4467072800989261E-07   -0.3916282732135956E-09    0.2666554477226413E-11   -0.5965436478128083E-12   -0.3271672854507357E-09
 -0.6468  -0.2526    0.2021614503316032E-01    0.6057540856359257E-05    0.2625773636464021E-05    0.4823969104949158E+00   -0.1133519094783682E-01   -0.2248188547970072E-08   -0.3870725320126445E-09    0.1697694068658606E-11   -0.6102826577425446E-12   -0.2112539908630251E-09
 -0.6497  -0.2595    0.1671488883823196E-01   -0.1136534797117504E-04   -0.1269265823059738E-06    0.4900494023597146E+00    0.7029286440115025E-02    0.6784286316902889E-08   -0.3845389267832745E-09    0.1133175150935806E-11   -0.6120456788952233E-12   -0.1196998719761588E-09
 -0.6517  -0.2644    0.1423653665429562E-01   -0.4892915298430217E-05   -0.1182030670457567E-05    0.4955655220721861E+00    0.3943656394146407E-02    0.2674818499829762E-08   -0.3819290851463097E-09    0.8893914250907020E-12   -0.6682840045235672E-12   -0.5316535753308038E-10
 -0.6530  -0.2673    0.1276522495443915E-01   -0.1965639631785967E-06   -0.1966143209411694E-06    0.4988899543813410E+00    0.6930977528707952E-03    0.1673312865570780E-09   -0.3788871153669396E-09    0.4632947671334708E-12   -0.4682677856582274E-12   -0.1351175790177683E-10
 -0.6534  -0.2683    0.1227516277895413E-01    0.0000000000000000E+00    0.0000000000000000E+00    0.5000000000000000E+00   -0.6246327806156836E-04    0.0000000000000000E+00    0.0000000000000000E+00    0.0000000000000000E+00    0.0000000000000000E+00    0.0000000000000000E+00
 -0.2640   0.6527    0.2584071645241981E-01    0.0000000000000000E+00    0.0000000000000000E+00   -0.5000000000000000E+00   -0.4428521934844788E-02    0.0000000000000000E+00    0.0000000000000000E+00    0.0000000000000000E+00    0.0000000000000000E+00    0.0000000000000000E+00
 -0.2644   0.6517    0.2632324746659810E-01    0.1882530711362349E-05   -0.5912317662388544E-05   -0.4951921827205900E+00   -0.7007558311135202E-02   -0.2933129278992497E-08   -0.1558473308304470E-08   -0.1628634293399100E-13    0.9568301012619074E-14    0.5856441091627029E-11
 -0.2656   0.6488    0.2774111730385948E-01    0.2919443439307585E-04   -0.2919874799184408E-04   -0.4807919787542654E+00   -0.1462668394708418E-01   -0.5852101410056110E-07   -0.1558711151469772E-08   -0.1319399233964957E-12   -0.8787935656950907E-13    0.2366332607292576E-10
 -0.2677   0.6439    0.3002156425372760E-01    0.1400143310387424E-03   -0.6148035454704740E-04   -0.4568856791402343E+00   -0.3460785361816391E-01   -0.3066791458479516E-06   -0.1559705444659221E-08    0.2801500351146125E-12   -0.4109022150311503E-12    0.5282597276279333E-10
 -0.2706   0.6370    0.3307533888415884E-01    0.3859246625831487E-03   -0.8430691959585055E-04   -0.4236760123515294E+00   -0.8045152586109773E-01   -0.8616375375033408E-06   -0.1561662354987448E-08    0.2261909409773111E-11   -0.9152401059253634E-12    0.9292398274463043E-10
 -0.2742   0.6283    0.3678124472955609E-01    0.7641137904366452E-03   -0.9043272645820889E-04   -0.3815800148464656E+00   -0.1558202109166555E+00   -0.1706115530773932E-05   -0.1564030516210124E-08    0.6911433231282516E-11   -0.1374227120987115E-11    0.1411679627361107E-09
 -0.2787   0.6176    0.4094573841223147E-01    0.1217172836439041E-02   -0.8096205323983645E-04   -0.3313692275718381E+00   -0.2511764347256635E+00   -0.2705133445148782E-05   -0.1565647202161902E-08    0.1453138998019909E-10   -0.1668380711361550E-11    0.1925285486592543E-09
 -0.2839   0.6052    0.4528580668644195E-01    0.1660109020297048E-02   -0.6095548889796306E-04   -0.2743236287482481E+00   -0.3492317590158691E+00   -0.3668441274079463E-05   -0.1565174007761572E-08    0.2449766084433591E-10   -0.1710458163994844E-11    0.2365024218131673E-09
 -0.2899   0.5909    0.4943823779227305E-01    0.2013369517626818E-02   -0.3714748855212528E-04   -0.2123398097605957E+00   -0.4328292936024193E+00   -0.4421155750161290E-05   -0.1561473176453498E-08    0.3549818772263791E-10   -0.1560326520766431E-11    0.2566743484422318E-09